 VARIABLES="x","y","eT","eE","eqx","eqy","pT","pE","pqx","pqy"
 ZONE I = 109 J = 109
     0.000000E+00    0.000000E+00    4.504963E-03    4.492468E-03   -2.534681E-03   -4.884240E-04    1.294598E-01    1.294598E-01   -7.699316E-02   -1.462455E-02
     3.210449E-04    0.000000E+00    5.318289E-03    5.305086E-03   -2.464189E-03   -3.241543E-04    1.373581E-01    1.373581E-01   -7.416757E-02   -9.753491E-03
     2.070313E-03    0.000000E+00    8.066228E-03    8.052217E-03   -2.262454E-03   -9.588426E-05    1.481763E-01    1.481763E-01   -6.712698E-02   -3.287742E-03
     5.504150E-03    0.000000E+00    1.235869E-02    1.234445E-02   -2.175819E-03   -1.433320E-05    1.547746E-01    1.547746E-01   -6.414440E-02   -1.538142E-03
     1.000000E-02    0.000000E+00    1.746703E-02    1.745197E-02   -2.139513E-03   -8.667414E-06    1.680649E-01    1.680649E-01   -6.360364E-02   -4.331543E-04
     1.980000E-02    0.000000E+00    2.808049E-02    2.806559E-02   -2.116475E-03    4.082370E-06    1.770068E-01    1.770068E-01   -6.393887E-02   -1.788850E-04
     2.960000E-02    0.000000E+00    3.840777E-02    3.839325E-02   -2.088986E-03   -4.179523E-06    1.835705E-01    1.835705E-01   -6.435473E-02   -2.145220E-04
     3.940000E-02    0.000000E+00    4.871701E-02    4.870281E-02   -2.074892E-03   -4.974151E-07    1.907573E-01    1.907573E-01   -6.486511E-02   -9.634962E-05
     4.920000E-02    0.000000E+00    5.900765E-02    5.899383E-02   -2.067990E-03    6.675133E-06    1.972609E-01    1.972609E-01   -6.547286E-02   -1.371381E-04
     5.900000E-02    0.000000E+00    6.915342E-02    6.913992E-02   -2.046812E-03   -6.437463E-07    2.041933E-01    2.041933E-01   -6.593397E-02   -1.610345E-04
     6.880000E-02    0.000000E+00    7.924356E-02    7.923040E-02   -2.038749E-03   -3.557144E-06    2.108814E-01    2.108814E-01   -6.642749E-02   -1.431342E-04
     7.860000E-02    0.000000E+00    8.937944E-02    8.936662E-02   -2.031435E-03    2.485479E-07    2.176252E-01    2.176252E-01   -6.686356E-02   -1.228024E-04
     8.840000E-02    0.000000E+00    9.949408E-02    9.948158E-02   -2.026360E-03    5.734358E-06    2.244749E-01    2.244749E-01   -6.724537E-02   -1.001333E-04
     9.820000E-02    0.000000E+00    1.095205E-01    1.095083E-01   -2.025017E-03    7.861316E-06    2.314807E-01    2.314807E-01   -6.757610E-02   -7.522107E-05
     1.080000E-01    0.000000E+00    1.194337E-01    1.194218E-01   -2.003917E-03   -1.948233E-06    2.384854E-01    2.384854E-01   -6.790513E-02   -8.500686E-05
     1.178000E-01    0.000000E+00    1.293683E-01    1.293567E-01   -1.997011E-03   -2.857608E-06    2.455716E-01    2.455716E-01   -6.815154E-02   -8.624763E-05
     1.276000E-01    0.000000E+00    1.393125E-01    1.393011E-01   -1.990506E-03   -6.041368E-07    2.524417E-01    2.524417E-01   -6.842728E-02   -7.821497E-05
     1.374000E-01    0.000000E+00    1.492394E-01    1.492284E-01   -1.985261E-03    2.940516E-06    2.591367E-01    2.591367E-01   -6.871507E-02   -6.773677E-05
     1.472000E-01    0.000000E+00    1.591224E-01    1.591117E-01   -1.982137E-03    5.904685E-06    2.656976E-01    2.656976E-01   -6.899765E-02   -6.164090E-05
     1.570000E-01    0.000000E+00    1.689345E-01    1.689242E-01   -1.981992E-03    6.416709E-06    2.721655E-01    2.721655E-01   -6.925775E-02   -6.675524E-05
     1.668000E-01    0.000000E+00    1.786686E-01    1.786586E-01   -1.962961E-03   -1.064858E-06    2.790902E-01    2.790902E-01   -6.949566E-02    4.870183E-06
     1.766000E-01    0.000000E+00    1.884102E-01    1.884004E-01   -1.956940E-03   -2.397409E-06    2.860218E-01    2.860218E-01   -6.958757E-02   -1.014118E-05
     1.864000E-01    0.000000E+00    1.981559E-01    1.981464E-01   -1.951196E-03   -1.572031E-06    2.929022E-01    2.929022E-01   -6.969587E-02   -1.896963E-05
     1.962000E-01    0.000000E+00    2.078922E-01    2.078830E-01   -1.946189E-03    5.194785E-07    2.997247E-01    2.997247E-01   -6.981999E-02   -2.363208E-05
     2.060000E-01    0.000000E+00    2.176056E-01    2.175967E-01   -1.942379E-03    2.985322E-06    3.064827E-01    3.064827E-01   -6.995934E-02   -2.614542E-05
     2.158000E-01    0.000000E+00    2.272827E-01    2.272741E-01   -1.940224E-03    4.933702E-06    3.131694E-01    3.131694E-01   -7.011332E-02   -2.852657E-05
     2.256000E-01    0.000000E+00    2.369100E-01    2.369017E-01   -1.940185E-03    5.472820E-06    3.197781E-01    3.197781E-01   -7.028136E-02   -3.279243E-05
     2.354000E-01    0.000000E+00    2.464744E-01    2.464664E-01   -1.924447E-03    3.808050E-07    3.262164E-01    3.262164E-01   -7.045015E-02   -3.242490E-05
     2.452000E-01    0.000000E+00    2.560272E-01    2.560196E-01   -1.919793E-03   -1.452234E-06    3.327283E-01    3.327283E-01   -7.054648E-02   -2.130590E-05
     2.550000E-01    0.000000E+00    2.655849E-01    2.655775E-01   -1.915226E-03   -1.727200E-06    3.392686E-01    3.392686E-01   -7.062480E-02   -1.285913E-05
     2.648000E-01    0.000000E+00    2.751397E-01    2.751326E-01   -1.911054E-03   -8.776360E-07    3.458233E-01    3.458233E-01   -7.068834E-02   -7.024818E-06
     2.746000E-01    0.000000E+00    2.846841E-01    2.846773E-01   -1.907582E-03    6.629142E-07    3.523784E-01    3.523784E-01   -7.074034E-02   -3.743175E-06
     2.844000E-01    0.000000E+00    2.942104E-01    2.942040E-01   -1.905117E-03    2.460908E-06    3.589197E-01    3.589197E-01   -7.078402E-02   -2.954421E-06
     2.942000E-01    0.000000E+00    3.037111E-01    3.037050E-01   -1.903968E-03    4.082802E-06    3.654333E-01    3.654333E-01   -7.082263E-02   -4.598774E-06
     3.040000E-01    0.000000E+00    3.131786E-01    3.131727E-01   -1.904440E-03    5.095053E-06    3.719052E-01    3.719052E-01   -7.085939E-02   -8.616451E-06
     3.138000E-01    0.000000E+00    3.226052E-01    3.225996E-01   -1.906840E-03    5.064118E-06    3.783211E-01    3.783211E-01   -7.089754E-02   -1.494767E-05
     3.236000E-01    0.000000E+00    3.319912E-01    3.319860E-01   -1.887672E-03   -9.857693E-07    3.847222E-01    3.847222E-01   -7.105054E-02   -3.002790E-05
     3.334000E-01    0.000000E+00    3.413867E-01    3.413817E-01   -1.885632E-03   -2.176878E-06    3.911607E-01    3.911607E-01   -7.113016E-02   -2.933361E-05
     3.432000E-01    0.000000E+00    3.507926E-01    3.507879E-01   -1.883244E-03   -1.845475E-06    3.976038E-01    3.976038E-01   -7.119197E-02   -2.729972E-05
     3.530000E-01    0.000000E+00    3.602010E-01    3.601966E-01   -1.880869E-03   -5.164978E-07    4.040494E-01    4.040494E-01   -7.123940E-02   -2.443319E-05
     3.628000E-01    0.000000E+00    3.696036E-01    3.695996E-01   -1.878864E-03    1.285117E-06    4.104952E-01    4.104952E-01   -7.127589E-02   -2.124099E-05
     3.726000E-01    0.000000E+00    3.789926E-01    3.789888E-01   -1.877589E-03    3.034432E-06    4.169391E-01    4.169391E-01   -7.130485E-02   -1.823010E-05
     3.824000E-01    0.000000E+00    3.883598E-01    3.883563E-01   -1.877401E-03    4.206509E-06    4.233788E-01    4.233788E-01   -7.132974E-02   -1.590749E-05
     3.922000E-01    0.000000E+00    3.976971E-01    3.976939E-01   -1.878660E-03    4.276411E-06    4.298123E-01    4.298123E-01   -7.135397E-02   -1.478012E-05
     4.020000E-01    0.000000E+00    4.069965E-01    4.069936E-01   -1.881725E-03    2.719201E-06    4.362372E-01    4.362372E-01   -7.138098E-02   -1.535497E-05
     4.118000E-01    0.000000E+00    4.162872E-01    4.162845E-01   -1.868265E-03   -1.659522E-07    4.427053E-01    4.427053E-01   -7.142514E-02   -1.403043E-05
     4.216000E-01    0.000000E+00    4.256010E-01    4.255986E-01   -1.864786E-03   -6.196494E-07    4.490890E-01    4.490890E-01   -7.148417E-02   -1.282583E-05
     4.314000E-01    0.000000E+00    4.349126E-01    4.349105E-01   -1.862133E-03   -7.979082E-07    4.554454E-01    4.554454E-01   -7.151788E-02   -1.159194E-05
     4.412000E-01    0.000000E+00    4.442216E-01    4.442199E-01   -1.860158E-03   -7.671587E-07    4.617846E-01    4.617846E-01   -7.153223E-02   -1.031805E-05
     4.510000E-01    0.000000E+00    4.535277E-01    4.535262E-01   -1.858713E-03   -5.938310E-07    4.681168E-01    4.681168E-01   -7.153316E-02   -8.993420E-06
     4.608000E-01    0.000000E+00    4.628303E-01    4.628291E-01   -1.857648E-03   -3.443555E-07    4.744522E-01    4.744522E-01   -7.152664E-02   -7.607319E-06
     4.706000E-01    0.000000E+00    4.721290E-01    4.721282E-01   -1.856817E-03   -8.516228E-08    4.808009E-01    4.808009E-01   -7.151862E-02   -6.149018E-06
     4.804000E-01    0.000000E+00    4.814235E-01    4.814230E-01   -1.856069E-03    1.173185E-07    4.871732E-01    4.871732E-01   -7.151504E-02   -4.607787E-06
     4.902000E-01    0.000000E+00    4.907133E-01    4.907131E-01   -1.855258E-03    1.966565E-07    4.935792E-01    4.935792E-01   -7.152186E-02   -2.972897E-06
     5.000000E-01    0.000000E+00    4.999980E-01    4.999980E-01   -1.854234E-03    8.642173E-08    5.000291E-01    5.000291E-01   -7.154503E-02   -1.233617E-06
     5.098000E-01    0.000000E+00    5.092827E-01    5.092830E-01   -1.855260E-03   -1.976891E-07    5.064133E-01    5.064133E-01   -7.152188E-02    2.634611E-06
     5.196000E-01    0.000000E+00    5.185726E-01    5.185731E-01   -1.856073E-03   -1.178402E-07    5.128193E-01    5.128193E-01   -7.151508E-02    4.269629E-06
     5.294000E-01    0.000000E+00    5.278671E-01    5.278679E-01   -1.856820E-03    8.518271E-08    5.191916E-01    5.191916E-01   -7.151868E-02    5.811180E-06
     5.392000E-01    0.000000E+00    5.371659E-01    5.371670E-01   -1.857652E-03    3.448552E-07    5.255403E-01    5.255403E-01   -7.152673E-02    7.270049E-06
     5.490000E-01    0.000000E+00    5.464685E-01    5.464699E-01   -1.858715E-03    5.946528E-07    5.318757E-01    5.318757E-01   -7.153327E-02    8.657019E-06
     5.588000E-01    0.000000E+00    5.557745E-01    5.557763E-01   -1.860160E-03    7.680513E-07    5.382079E-01    5.382079E-01   -7.153235E-02    9.982875E-06
     5.686000E-01    0.000000E+00    5.650836E-01    5.650856E-01   -1.862135E-03    7.985262E-07    5.445471E-01    5.445471E-01   -7.151803E-02    1.125840E-05
     5.784000E-01    0.000000E+00    5.743952E-01    5.743976E-01   -1.864788E-03    6.195531E-07    5.509036E-01    5.509036E-01   -7.148434E-02    1.249438E-05
     5.882000E-01    0.000000E+00    5.837090E-01    5.837116E-01   -1.868268E-03    1.646076E-07    5.572874E-01    5.572874E-01   -7.142533E-02    1.370159E-05
     5.980000E-01    0.000000E+00    5.929997E-01    5.930026E-01   -1.881733E-03   -2.722158E-06    5.637554E-01    5.637554E-01   -7.138119E-02    1.502799E-05
     6.078000E-01    0.000000E+00    6.022991E-01    6.023024E-01   -1.878670E-03   -4.277559E-06    5.701804E-01    5.701804E-01   -7.135420E-02    1.445422E-05
     6.176000E-01    0.000000E+00    6.116365E-01    6.116400E-01   -1.877411E-03   -4.206399E-06    5.766139E-01    5.766139E-01   -7.132999E-02    1.558324E-05
     6.274000E-01    0.000000E+00    6.210037E-01    6.210075E-01   -1.877598E-03   -3.033572E-06    5.830537E-01    5.830537E-01   -7.130513E-02    1.790804E-05
     6.372000E-01    0.000000E+00    6.303927E-01    6.303968E-01   -1.878873E-03   -1.283971E-06    5.894977E-01    5.894977E-01   -7.127618E-02    2.092162E-05
     6.470000E-01    0.000000E+00    6.397955E-01    6.397999E-01   -1.880877E-03    5.175119E-07    5.959435E-01    5.959435E-01   -7.123972E-02    2.411697E-05
     6.568000E-01    0.000000E+00    6.492039E-01    6.492085E-01   -1.883252E-03    1.845983E-06    6.023892E-01    6.023892E-01   -7.119230E-02    2.698710E-05
     6.666000E-01    0.000000E+00    6.586098E-01    6.586148E-01   -1.885640E-03    2.176551E-06    6.088323E-01    6.088323E-01   -7.113051E-02    2.902498E-05
     6.764000E-01    0.000000E+00    6.680053E-01    6.680106E-01   -1.887681E-03    9.843211E-07    6.152709E-01    6.152709E-01   -7.105091E-02    2.972363E-05
     6.862000E-01    0.000000E+00    6.773914E-01    6.773970E-01   -1.906854E-03   -5.066833E-06    6.216721E-01    6.216721E-01   -7.089793E-02    1.464731E-05
     6.960000E-01    0.000000E+00    6.868181E-01    6.868239E-01   -1.904455E-03   -5.096078E-06    6.280881E-01    6.280881E-01   -7.085980E-02    8.319129E-06
     7.058000E-01    0.000000E+00    6.962856E-01    6.962918E-01   -1.903983E-03   -4.082634E-06    6.345600E-01    6.345600E-01   -7.082306E-02    4.304959E-06
     7.156000E-01    0.000000E+00    7.057864E-01    7.057928E-01   -1.905132E-03   -2.460029E-06    6.410737E-01    6.410737E-01   -7.078447E-02    2.664595E-06
     7.254000E-01    0.000000E+00    7.153128E-01    7.153195E-01   -1.907596E-03   -6.617895E-07    6.476151E-01    6.476151E-01   -7.074080E-02    3.457832E-06
     7.352000E-01    0.000000E+00    7.248572E-01    7.248643E-01   -1.911067E-03    8.785562E-07    6.541703E-01    6.541703E-01   -7.068882E-02    6.744464E-06
     7.450000E-01    0.000000E+00    7.344121E-01    7.344195E-01   -1.915239E-03    1.727481E-06    6.607251E-01    6.607251E-01   -7.062529E-02    1.258429E-05
     7.548000E-01    0.000000E+00    7.439698E-01    7.439775E-01   -1.919807E-03    1.451457E-06    6.672655E-01    6.672655E-01   -7.054699E-02    2.103710E-05
     7.646000E-01    0.000000E+00    7.535227E-01    7.535307E-01   -1.924463E-03   -3.830440E-07    6.737775E-01    6.737775E-01   -7.045068E-02    3.216269E-05
     7.744000E-01    0.000000E+00    7.630872E-01    7.630955E-01   -1.940205E-03   -5.474315E-06    6.802160E-01    6.802160E-01   -7.028191E-02    3.253360E-05
     7.842000E-01    0.000000E+00    7.727146E-01    7.727231E-01   -1.940244E-03   -4.933682E-06    6.868248E-01    6.868248E-01   -7.011388E-02    2.827236E-05
     7.940000E-01    0.000000E+00    7.823918E-01    7.824006E-01   -1.942398E-03   -2.984429E-06    6.935116E-01    6.935116E-01   -6.995991E-02    2.589641E-05
     8.038000E-01    0.000000E+00    7.921053E-01    7.921145E-01   -1.946208E-03   -5.183354E-07    7.002697E-01    7.002697E-01   -6.982058E-02    2.338885E-05
     8.136000E-01    0.000000E+00    8.018417E-01    8.018512E-01   -1.951215E-03    1.572817E-06    7.070923E-01    7.070923E-01   -6.969647E-02    1.873277E-05
     8.234000E-01    0.000000E+00    8.115874E-01    8.115972E-01   -1.956958E-03    2.397248E-06    7.139729E-01    7.139729E-01   -6.958818E-02    9.911271E-06
     8.332000E-01    0.000000E+00    8.213291E-01    8.213391E-01   -1.962981E-03    1.063176E-06    7.209046E-01    7.209046E-01   -6.949629E-02   -5.092549E-06
     8.430000E-01    0.000000E+00    8.310633E-01    8.310736E-01   -1.982016E-03   -6.418626E-06    7.278294E-01    7.278294E-01   -6.925839E-02    6.654048E-05
     8.528000E-01    0.000000E+00    8.408756E-01    8.408862E-01   -1.982161E-03   -5.904671E-06    7.342974E-01    7.342974E-01   -6.899829E-02    6.143145E-05
     8.626000E-01    0.000000E+00    8.507586E-01    8.507696E-01   -1.985285E-03   -2.939543E-06    7.408585E-01    7.408585E-01   -6.871572E-02    6.753361E-05
     8.724000E-01    0.000000E+00    8.606857E-01    8.606970E-01   -1.990529E-03    6.051579E-07    7.475536E-01    7.475536E-01   -6.842794E-02    7.801897E-05
     8.822000E-01    0.000000E+00    8.706300E-01    8.706416E-01   -1.997034E-03    2.857832E-06    7.544238E-01    7.544238E-01   -6.815221E-02    8.605954E-05
     8.920000E-01    0.000000E+00    8.805646E-01    8.805765E-01   -2.003940E-03    1.946880E-06    7.615102E-01    7.615102E-01   -6.790581E-02    8.482731E-05
     9.018000E-01    0.000000E+00    8.904780E-01    8.904902E-01   -2.025045E-03   -7.863007E-06    7.685150E-01    7.685150E-01   -6.757678E-02    7.504854E-05
     9.116000E-01    0.000000E+00    9.005045E-01    9.005170E-01   -2.026388E-03   -5.734015E-06    7.755209E-01    7.755209E-01   -6.724606E-02    9.996779E-05
     9.214000E-01    0.000000E+00    9.106193E-01    9.106321E-01   -2.031461E-03   -2.475327E-07    7.823708E-01    7.823708E-01   -6.686426E-02    1.226446E-04
     9.312000E-01    0.000000E+00    9.207553E-01    9.207685E-01   -2.038776E-03    3.557400E-06    7.891147E-01    7.891147E-01   -6.642819E-02    1.429850E-04
     9.410000E-01    0.000000E+00    9.308455E-01    9.308591E-01   -2.046840E-03    6.417453E-07    7.958030E-01    7.958030E-01   -6.593467E-02    1.608951E-04
     9.508000E-01    0.000000E+00    9.409915E-01    9.410053E-01   -2.068020E-03   -6.675316E-06    8.027356E-01    8.027356E-01   -6.547356E-02    1.370044E-04
     9.606000E-01    0.000000E+00    9.512823E-01    9.512965E-01   -2.074922E-03    4.982047E-07    8.092393E-01    8.092393E-01   -6.486580E-02    9.622225E-05
     9.704000E-01    0.000000E+00    9.615916E-01    9.616061E-01   -2.089016E-03    4.178505E-06    8.164263E-01    8.164263E-01   -6.435543E-02    2.144066E-04
     9.802000E-01    0.000000E+00    9.719191E-01    9.719340E-01   -2.116509E-03   -4.082453E-06    8.229901E-01    8.229901E-01   -6.393957E-02    1.787759E-04
     9.900000E-01    0.000000E+00    9.825327E-01    9.825477E-01   -2.139548E-03    8.666131E-06    8.319323E-01    8.319323E-01   -6.360434E-02    4.330613E-04
     9.944958E-01    0.000000E+00    9.876411E-01    9.876553E-01   -2.175856E-03    1.433246E-05    8.452228E-01    8.452228E-01   -6.414511E-02    1.538082E-03
     9.979297E-01    0.000000E+00    9.919336E-01    9.919476E-01   -2.262494E-03    9.588497E-05    8.518213E-01    8.518213E-01   -6.712776E-02    3.287724E-03
     9.996790E-01    0.000000E+00    9.946816E-01    9.946948E-01   -2.464235E-03    3.241591E-04    8.626397E-01    8.626397E-01   -7.416851E-02    9.753617E-03
     1.000000E+00    0.000000E+00    9.954950E-01    9.955074E-01   -2.534729E-03    4.884321E-04    8.705382E-01    8.705382E-01   -7.699417E-02    1.462478E-02
     0.000000E+00    6.420898E-05    4.520418E-03    4.507855E-03   -2.580534E-03   -5.945424E-04    1.301487E-01    1.301487E-01   -7.790207E-02   -1.750513E-02
     3.210449E-04    6.420898E-05    5.327278E-03    5.314080E-03   -2.477712E-03   -3.252849E-04    1.373099E-01    1.373099E-01   -7.430374E-02   -9.903450E-03
     2.070313E-03    6.420898E-05    8.067193E-03    8.053189E-03   -2.280663E-03   -9.757626E-05    1.481010E-01    1.481010E-01   -6.733390E-02   -3.365902E-03
     5.504150E-03    6.420898E-05    1.235877E-02    1.234453E-02   -2.194372E-03   -1.569844E-05    1.547515E-01    1.547515E-01   -6.433311E-02   -1.579997E-03
     1.000000E-02    6.420898E-05    1.746750E-02    1.745245E-02   -2.157907E-03   -8.814833E-06    1.679892E-01    1.679892E-01   -6.372387E-02   -4.421046E-04
     1.980000E-02    6.420898E-05    2.807990E-02    2.806501E-02   -2.134692E-03    3.847006E-06    1.769568E-01    1.769568E-01   -6.402689E-02   -1.753783E-04
     2.960000E-02    6.420898E-05    3.840838E-02    3.839387E-02   -2.107529E-03   -4.153424E-06    1.835210E-01    1.835210E-01   -6.443663E-02   -2.142495E-04
     3.940000E-02    6.420898E-05    4.871685E-02    4.870265E-02   -2.093389E-03   -5.381508E-07    1.907274E-01    1.907274E-01   -6.493881E-02   -9.402876E-05
     4.920000E-02    6.420898E-05    5.900703E-02    5.899321E-02   -2.086218E-03    6.543873E-06    1.972355E-01    1.972355E-01   -6.554039E-02   -1.341170E-04
     5.900000E-02    6.420898E-05    6.915445E-02    6.914095E-02   -2.065376E-03   -5.969876E-07    2.041688E-01    2.041688E-01   -6.599963E-02   -1.577188E-04
     6.880000E-02    6.420898E-05    7.924382E-02    7.923066E-02   -2.057332E-03   -3.544430E-06    2.108593E-01    2.108593E-01   -6.649238E-02   -1.403151E-04
     7.860000E-02    6.420898E-05    8.937915E-02    8.936633E-02   -2.049919E-03    2.183563E-07    2.176049E-01    2.176049E-01   -6.692770E-02   -1.204691E-04
     8.840000E-02    6.420898E-05    9.949347E-02    9.948097E-02   -2.044631E-03    5.652399E-06    2.244559E-01    2.244559E-01   -6.730876E-02   -9.827489E-05
     9.820000E-02    6.420898E-05    1.095198E-01    1.095076E-01   -2.042958E-03    7.718726E-06    2.314623E-01    2.314623E-01   -6.763873E-02   -7.382671E-05
     1.080000E-01    6.420898E-05    1.194344E-01    1.194225E-01   -2.022371E-03   -1.934371E-06    2.384761E-01    2.384761E-01   -6.796411E-02   -8.383438E-05
     1.178000E-01    6.420898E-05    1.293685E-01    1.293569E-01   -2.015452E-03   -2.853424E-06    2.455589E-01    2.455589E-01   -6.821009E-02   -8.478975E-05
     1.276000E-01    6.420898E-05    1.393123E-01    1.393010E-01   -2.008869E-03   -6.182175E-07    2.524277E-01    2.524277E-01   -6.848548E-02   -7.657261E-05
     1.374000E-01    6.420898E-05    1.492390E-01    1.492280E-01   -2.003480E-03    2.899584E-06    2.591233E-01    2.591233E-01   -6.877301E-02   -6.601082E-05
     1.472000E-01    6.420898E-05    1.591218E-01    1.591111E-01   -2.000148E-03    5.828316E-06    2.656869E-01    2.656869E-01   -6.905541E-02   -5.993228E-05
     1.570000E-01    6.420898E-05    1.689339E-01    1.689236E-01   -1.999730E-03    6.296315E-06    2.721595E-01    2.721595E-01   -6.931542E-02   -6.516485E-05
     1.668000E-01    6.420898E-05    1.786693E-01    1.786593E-01   -1.981160E-03   -1.067641E-06    2.790803E-01    2.790803E-01   -6.955268E-02    5.334973E-06
     1.766000E-01    6.420898E-05    1.884105E-01    1.884007E-01   -1.975137E-03   -2.397581E-06    2.860123E-01    2.860123E-01   -6.964407E-02   -9.590151E-06
     1.864000E-01    6.420898E-05    1.981558E-01    1.981464E-01   -1.969349E-03   -1.576572E-06    2.928929E-01    2.928929E-01   -6.975178E-02   -1.832942E-05
     1.962000E-01    6.420898E-05    2.078919E-01    2.078827E-01   -1.964255E-03    5.035889E-07    2.997155E-01    2.997155E-01   -6.987522E-02   -2.289976E-05
     2.060000E-01    6.420898E-05    2.176052E-01    2.175963E-01   -1.960317E-03    2.951103E-06    3.064733E-01    3.064733E-01   -7.001382E-02   -2.531805E-05
     2.158000E-01    6.420898E-05    2.272822E-01    2.272736E-01   -1.957993E-03    4.874174E-06    3.131596E-01    3.131596E-01   -7.016698E-02   -2.760122E-05
     2.256000E-01    6.420898E-05    2.369095E-01    2.369012E-01   -1.957742E-03    5.381003E-06    3.197677E-01    3.197677E-01   -7.033411E-02   -3.176617E-05
     2.354000E-01    6.420898E-05    2.464749E-01    2.464669E-01   -2.119705E-03   -5.878707E-06    3.262283E-01    3.262283E-01   -7.053752E-02   -3.931660E-05
     2.452000E-01    6.420898E-05    2.560276E-01    2.560199E-01   -1.937715E-03   -1.460505E-06    3.327221E-01    3.327221E-01   -7.059966E-02   -2.077644E-05
     2.550000E-01    6.420898E-05    2.655850E-01    2.655776E-01   -1.933131E-03   -1.734406E-06    3.392625E-01    3.392625E-01   -7.067798E-02   -1.245818E-05
     2.648000E-01    6.420898E-05    2.751396E-01    2.751325E-01   -1.928910E-03   -8.896642E-07    3.458173E-01    3.458173E-01   -7.074150E-02   -6.724283E-06
     2.746000E-01    6.420898E-05    2.846838E-01    2.846771E-01   -1.925361E-03    6.401786E-07    3.523726E-01    3.523726E-01   -7.079347E-02   -3.514977E-06
     2.844000E-01    6.420898E-05    2.942100E-01    2.942036E-01   -1.922788E-03    2.421579E-06    3.589143E-01    3.589143E-01   -7.083712E-02   -2.770478E-06
     2.942000E-01    6.420898E-05    3.037106E-01    3.037045E-01   -1.921501E-03    4.020994E-06    3.654283E-01    3.654283E-01   -7.087567E-02   -4.431002E-06
     3.040000E-01    6.420898E-05    3.131780E-01    3.131721E-01   -1.921805E-03    5.004880E-06    3.719006E-01    3.719006E-01   -7.091237E-02   -8.436768E-06
     3.138000E-01    6.420898E-05    3.226046E-01    3.225990E-01   -1.924007E-03    4.939694E-06    3.783172E-01    3.783172E-01   -7.095045E-02   -1.472799E-05
     3.236000E-01    6.420898E-05    3.319918E-01    3.319865E-01   -1.905340E-03   -1.004600E-06    3.847179E-01    3.847179E-01   -7.110119E-02   -2.948170E-05
     3.334000E-01    6.420898E-05    3.413869E-01    3.413820E-01   -1.903304E-03   -2.191639E-06    3.911566E-01    3.911566E-01   -7.118081E-02   -2.891394E-05
     3.432000E-01    6.420898E-05    3.507926E-01    3.507879E-01   -1.900896E-03   -1.859609E-06    3.976000E-01    3.976000E-01   -7.124260E-02   -2.698442E-05
     3.530000E-01    6.420898E-05    3.602008E-01    3.601964E-01   -1.898477E-03   -5.334502E-07    4.040458E-01    4.040458E-01   -7.129000E-02   -2.420012E-05
     3.628000E-01    6.420898E-05    3.696033E-01    3.695992E-01   -1.896404E-03    1.261902E-06    4.104919E-01    4.104919E-01   -7.132645E-02   -2.106801E-05
     3.726000E-01    6.420898E-05    3.789922E-01    3.789884E-01   -1.895036E-03    3.001509E-06    4.169360E-01    4.169360E-01   -7.135537E-02   -1.809506E-05
     3.824000E-01    6.420898E-05    3.883594E-01    3.883559E-01   -1.894732E-03    4.160434E-06    4.233761E-01    4.233761E-01   -7.138019E-02   -1.578824E-05
     3.922000E-01    6.420898E-05    3.976968E-01    3.976935E-01   -1.895850E-03    4.213739E-06    4.298098E-01    4.298098E-01   -7.140435E-02   -1.465452E-05
     4.020000E-01    6.420898E-05    4.069963E-01    4.069933E-01   -1.898750E-03    2.636488E-06    4.362350E-01    4.362350E-01   -7.143128E-02   -1.520088E-05
     4.118000E-01    6.420898E-05    4.162873E-01    4.162846E-01   -1.885856E-03   -1.917237E-07    4.427013E-01    4.427013E-01   -7.147466E-02   -1.360684E-05
     4.216000E-01    6.420898E-05    4.256011E-01    4.255987E-01   -1.882393E-03   -6.353584E-07    4.490862E-01    4.490862E-01   -7.153399E-02   -1.256575E-05
     4.314000E-01    6.420898E-05    4.349127E-01    4.349106E-01   -1.879753E-03   -8.054560E-07    4.554436E-01    4.554436E-01   -7.156791E-02   -1.146269E-05
     4.412000E-01    6.420898E-05    4.442217E-01    4.442200E-01   -1.877790E-03   -7.684468E-07    4.617835E-01    4.617835E-01   -7.158239E-02   -1.028694E-05
     4.510000E-01    6.420898E-05    4.535277E-01    4.535263E-01   -1.876352E-03   -5.907609E-07    4.681162E-01    4.681162E-01   -7.158338E-02   -9.027777E-06
     4.608000E-01    6.420898E-05    4.628303E-01    4.628292E-01   -1.875294E-03   -3.388285E-07    4.744519E-01    4.744519E-01   -7.157681E-02   -7.674462E-06
     4.706000E-01    6.420898E-05    4.721291E-01    4.721282E-01   -1.874465E-03   -7.907979E-08    4.808008E-01    4.808008E-01   -7.156866E-02   -6.216268E-06
     4.804000E-01    6.420898E-05    4.814236E-01    4.814230E-01   -1.873718E-03    1.220550E-07    4.871731E-01    4.871731E-01   -7.156487E-02   -4.642465E-06
     4.902000E-01    6.420898E-05    4.907134E-01    4.907131E-01   -1.872903E-03    1.981457E-07    4.935788E-01    4.935788E-01   -7.157139E-02   -2.942323E-06
     5.000000E-01    6.420898E-05    4.999980E-01    4.999980E-01   -1.871874E-03    8.276216E-08    5.000283E-01    5.000283E-01   -7.159418E-02   -1.105111E-06
     5.098000E-01    6.420898E-05    5.092827E-01    5.092830E-01   -1.872906E-03   -1.991773E-07    5.064136E-01    5.064136E-01   -7.157141E-02    2.604183E-06
     5.196000E-01    6.420898E-05    5.185725E-01    5.185731E-01   -1.873721E-03   -1.225882E-07    5.128194E-01    5.128194E-01   -7.156492E-02    4.304451E-06
     5.294000E-01    6.420898E-05    5.278670E-01    5.278679E-01   -1.874468E-03    7.907904E-08    5.191917E-01    5.191917E-01   -7.156873E-02    5.878573E-06
     5.392000E-01    6.420898E-05    5.371658E-01    5.371669E-01   -1.875297E-03    3.393001E-07    5.255405E-01    5.255405E-01   -7.157690E-02    7.337334E-06
     5.490000E-01    6.420898E-05    5.464684E-01    5.464699E-01   -1.876355E-03    5.915505E-07    5.318763E-01    5.318763E-01   -7.158348E-02    8.691517E-06
     5.588000E-01    6.420898E-05    5.557744E-01    5.557762E-01   -1.877792E-03    7.693060E-07    5.382090E-01    5.382090E-01   -7.158252E-02    9.951906E-06
     5.686000E-01    6.420898E-05    5.650835E-01    5.650855E-01   -1.879756E-03    8.060421E-07    5.445490E-01    5.445490E-01   -7.156806E-02    1.112928E-05
     5.784000E-01    6.420898E-05    5.743951E-01    5.743975E-01   -1.882395E-03    6.352344E-07    5.509064E-01    5.509064E-01   -7.153416E-02    1.223444E-05
     5.882000E-01    6.420898E-05    5.837089E-01    5.837116E-01   -1.885858E-03    1.903586E-07    5.572913E-01    5.572913E-01   -7.147485E-02    1.327815E-05
     5.980000E-01    6.420898E-05    5.929999E-01    5.930029E-01   -1.898759E-03   -2.639443E-06    5.637576E-01    5.637576E-01   -7.143149E-02    1.487404E-05
     6.078000E-01    6.420898E-05    6.022995E-01    6.023027E-01   -1.895860E-03   -4.214900E-06    5.701829E-01    5.701829E-01   -7.140459E-02    1.432877E-05
     6.176000E-01    6.420898E-05    6.116369E-01    6.116404E-01   -1.894742E-03   -4.160349E-06    5.766167E-01    5.766167E-01   -7.138045E-02    1.546414E-05
     6.274000E-01    6.420898E-05    6.210041E-01    6.210079E-01   -1.895045E-03   -3.000682E-06    5.830568E-01    5.830568E-01   -7.135565E-02    1.777314E-05
     6.372000E-01    6.420898E-05    6.303931E-01    6.303971E-01   -1.896412E-03   -1.260792E-06    5.895010E-01    5.895010E-01   -7.132675E-02    2.074878E-05
     6.470000E-01    6.420898E-05    6.397957E-01    6.398000E-01   -1.898485E-03    5.344271E-07    5.959471E-01    5.959471E-01   -7.129032E-02    2.388404E-05
     6.568000E-01    6.420898E-05    6.492039E-01    6.492085E-01   -1.900904E-03    1.860083E-06    6.023930E-01    6.023930E-01   -7.124293E-02    2.667193E-05
     6.666000E-01    6.420898E-05    6.586096E-01    6.586145E-01   -1.903312E-03    2.191284E-06    6.088364E-01    6.088364E-01   -7.118116E-02    2.860544E-05
     6.764000E-01    6.420898E-05    6.680047E-01    6.680100E-01   -1.905350E-03    1.003136E-06    6.152753E-01    6.152753E-01   -7.110156E-02    2.917755E-05
     6.862000E-01    6.420898E-05    6.773920E-01    6.773976E-01   -1.924021E-03   -4.942416E-06    6.216760E-01    6.216760E-01   -7.095084E-02    1.442775E-05
     6.960000E-01    6.420898E-05    6.868186E-01    6.868245E-01   -1.921820E-03   -5.005927E-06    6.280926E-01    6.280926E-01   -7.091278E-02    8.139566E-06