 VARIABLES="x","y","eT","eE","eqx","eqy","pT","pE","pqx","pqy"
 ZONE I = 109 J = 109
     0.000000E+00    0.000000E+00    7.661789E-04    1.021491E-03   -5.645645E-04   -5.691954E-04    5.108663E-04    5.108663E-04   -2.816890E-04   -2.684629E-04
     3.210449E-04    0.000000E+00    8.364204E-04    1.085103E-03   -5.676631E-04   -5.977774E-04    5.877376E-04    5.877376E-04   -2.765552E-04   -2.985378E-04
     2.070313E-03    0.000000E+00    1.139145E-03    1.394055E-03   -5.916154E-04   -7.764014E-04    8.842353E-04    8.842353E-04   -2.676447E-04   -4.598617E-04
     5.504150E-03    0.000000E+00    1.684348E-03    1.971693E-03   -6.187216E-04   -1.114037E-03    1.397003E-03    1.397003E-03   -2.500925E-04   -7.190418E-04
     1.000000E-02    0.000000E+00    2.328386E-03    2.693356E-03   -6.493237E-04   -1.540106E-03    1.963416E-03    1.963416E-03   -2.477435E-04   -1.036362E-03
     1.980000E-02    0.000000E+00    3.759614E-03    4.301071E-03   -6.560938E-04   -2.469584E-03    3.218157E-03    3.218157E-03   -2.313784E-04   -1.671216E-03
     2.960000E-02    0.000000E+00    5.125394E-03    5.871438E-03   -6.412224E-04   -3.366944E-03    4.379350E-03    4.379350E-03   -2.167532E-04   -2.286699E-03
     3.940000E-02    0.000000E+00    6.459781E-03    7.395206E-03   -6.281030E-04   -4.253002E-03    5.524356E-03    5.524356E-03   -2.191517E-04   -2.883094E-03
     4.920000E-02    0.000000E+00    7.773981E-03    8.880196E-03   -5.932501E-04   -5.097634E-03    6.667766E-03    6.667766E-03   -2.052416E-04   -3.444948E-03
     5.900000E-02    0.000000E+00    8.923307E-03    1.022665E-02   -5.326562E-04   -5.862977E-03    7.619961E-03    7.619961E-03   -1.664491E-04   -3.965239E-03
     6.880000E-02    0.000000E+00    1.008050E-02    1.154588E-02   -5.322614E-04   -6.630644E-03    8.615113E-03    8.615113E-03   -1.849789E-04   -4.487862E-03
     7.860000E-02    0.000000E+00    1.117507E-02    1.278549E-02   -4.951188E-04   -7.340452E-03    9.564658E-03    9.564658E-03   -1.725346E-04   -4.965816E-03
     8.840000E-02    0.000000E+00    1.217989E-02    1.392422E-02   -4.483904E-04   -7.982410E-03    1.043557E-02    1.043557E-02   -1.550241E-04   -5.387869E-03
     9.820000E-02    0.000000E+00    1.306780E-02    1.494079E-02   -4.192388E-04   -8.546531E-03    1.119481E-02    1.119481E-02   -1.583555E-04   -5.742790E-03
     1.080000E-01    0.000000E+00    1.382543E-02    1.583950E-02   -3.768629E-04   -9.097549E-03    1.181137E-02    1.181137E-02   -1.313705E-04   -6.148647E-03
     1.178000E-01    0.000000E+00    1.462823E-02    1.674671E-02   -3.415726E-04   -9.612017E-03    1.250974E-02    1.250974E-02   -1.180842E-04   -6.497531E-03
     1.276000E-01    0.000000E+00    1.532289E-02    1.753569E-02   -3.081383E-04   -1.006104E-02    1.311009E-02    1.311009E-02   -1.054203E-04   -6.798583E-03
     1.374000E-01    0.000000E+00    1.593065E-02    1.822769E-02   -2.782946E-04   -1.045489E-02    1.363362E-02    1.363362E-02   -9.640213E-05   -7.059181E-03
     1.472000E-01    0.000000E+00    1.647275E-02    1.884397E-02   -2.537763E-04   -1.080385E-02    1.410152E-02    1.410152E-02   -9.405306E-05   -7.286706E-03
     1.570000E-01    0.000000E+00    1.697041E-02    1.940580E-02   -2.363180E-04   -1.111819E-02    1.453502E-02    1.453502E-02   -1.013965E-04   -7.488535E-03
     1.668000E-01    0.000000E+00    1.736911E-02    1.988552E-02   -1.666883E-04   -1.139593E-02    1.485269E-02    1.485269E-02   -4.461249E-05   -7.692466E-03
     1.766000E-01    0.000000E+00    1.773861E-02    2.031552E-02   -1.721029E-04   -1.165818E-02    1.516170E-02    1.516170E-02   -5.999701E-05   -7.869197E-03
     1.864000E-01    0.000000E+00    1.809359E-02    2.071873E-02   -1.631794E-04   -1.189556E-02    1.546845E-02    1.546845E-02   -6.131316E-05   -8.033276E-03
     1.962000E-01    0.000000E+00    1.842327E-02    2.108718E-02   -1.456297E-04   -1.210527E-02    1.575936E-02    1.575936E-02   -5.461181E-05   -8.179128E-03
     2.060000E-01    0.000000E+00    1.871691E-02    2.141294E-02   -1.251657E-04   -1.228449E-02    1.602087E-02    1.602087E-02   -4.594386E-05   -8.301176E-03
     2.158000E-01    0.000000E+00    1.896374E-02    2.168808E-02   -1.074994E-04   -1.243041E-02    1.623940E-02    1.623940E-02   -4.136021E-05   -8.393843E-03
     2.256000E-01    0.000000E+00    1.915301E-02    2.190463E-02   -9.834268E-05   -1.254020E-02    1.640138E-02    1.640138E-02   -4.691175E-05   -8.451553E-03
     2.354000E-01    0.000000E+00    1.924195E-02    2.203418E-02   -5.577360E-05   -1.263185E-02    1.644972E-02    1.644972E-02   -1.103697E-05   -8.520698E-03
     2.452000E-01    0.000000E+00    1.941446E-02    2.223375E-02   -6.723347E-05   -1.275776E-02    1.659517E-02    1.659517E-02   -2.455905E-05   -8.608095E-03
     2.550000E-01    0.000000E+00    1.957456E-02    2.241426E-02   -6.872514E-05   -1.286721E-02    1.673486E-02    1.673486E-02   -2.863416E-05   -8.687009E-03
     2.648000E-01    0.000000E+00    1.971949E-02    2.257434E-02   -6.339875E-05   -1.296001E-02    1.686463E-02    1.686463E-02   -2.657526E-05   -8.755205E-03
     2.746000E-01    0.000000E+00    1.984649E-02    2.271261E-02   -5.440448E-05   -1.303598E-02    1.698037E-02    1.698037E-02   -2.169528E-05   -8.810445E-03
     2.844000E-01    0.000000E+00    1.995280E-02    2.282769E-02   -4.489246E-05   -1.309494E-02    1.707792E-02    1.707792E-02   -1.730716E-05   -8.850492E-03
     2.942000E-01    0.000000E+00    2.003567E-02    2.291820E-02   -3.801286E-05   -1.313670E-02    1.715314E-02    1.715314E-02   -1.672387E-05   -8.873109E-03
     3.040000E-01    0.000000E+00    2.009234E-02    2.298278E-02   -3.691582E-05   -1.316108E-02    1.720191E-02    1.720191E-02   -2.325832E-05   -8.876059E-03
     3.138000E-01    0.000000E+00    2.012006E-02    2.302004E-02   -4.475150E-05   -1.316791E-02    1.722007E-02    1.722007E-02   -4.022348E-05   -8.857105E-03
     3.236000E-01    0.000000E+00    2.012656E-02    2.304724E-02   -1.142611E-05   -1.321764E-02    1.720587E-02    1.720587E-02   -2.023669E-06   -8.914637E-03
     3.334000E-01    0.000000E+00    2.018710E-02    2.311694E-02   -2.417316E-05   -1.326768E-02    1.725726E-02    1.725726E-02   -1.214011E-05   -8.953384E-03
     3.432000E-01    0.000000E+00    2.024921E-02    2.318432E-02   -2.791048E-05   -1.331060E-02    1.731409E-02    1.731409E-02   -1.491839E-05   -8.988365E-03
     3.530000E-01    0.000000E+00    2.030838E-02    2.324592E-02   -2.554241E-05   -1.334518E-02    1.737083E-02    1.737083E-02   -1.309086E-05   -9.017084E-03
     3.628000E-01    0.000000E+00    2.036010E-02    2.329828E-02   -1.997330E-05   -1.337021E-02    1.742191E-02    1.742191E-02   -9.389913E-06   -9.037042E-03
     3.726000E-01    0.000000E+00    2.039987E-02    2.333795E-02   -1.410747E-05   -1.338446E-02    1.746178E-02    1.746178E-02   -6.547900E-06   -9.045744E-03
     3.824000E-01    0.000000E+00    2.042318E-02    2.336147E-02   -1.084929E-05   -1.338673E-02    1.748489E-02    1.748489E-02   -7.297197E-06   -9.040690E-03
     3.922000E-01    0.000000E+00    2.042553E-02    2.336539E-02   -1.310308E-05   -1.337579E-02    1.748567E-02    1.748567E-02   -1.437017E-05   -9.019386E-03
     4.020000E-01    0.000000E+00    2.040242E-02    2.334625E-02   -2.377319E-05   -1.335042E-02    1.745859E-02    1.745859E-02   -3.049919E-05   -8.979333E-03
     4.118000E-01    0.000000E+00    2.036596E-02    2.332251E-02   -1.862306E-06   -1.338085E-02    1.740942E-02    1.740942E-02   -3.995971E-07   -9.026021E-03
     4.216000E-01    0.000000E+00    2.040732E-02    2.336696E-02   -4.088733E-06   -1.341087E-02    1.744767E-02    1.744767E-02   -2.206114E-06   -9.050651E-03
     4.314000E-01    0.000000E+00    2.043890E-02    2.339963E-02   -4.540814E-06   -1.343264E-02    1.747817E-02    1.747817E-02   -2.656620E-06   -9.069829E-03
     4.412000E-01    0.000000E+00    2.046163E-02    2.342203E-02   -3.684777E-06   -1.344730E-02    1.750122E-02    1.750122E-02   -2.101820E-06   -9.083932E-03
     4.510000E-01    0.000000E+00    2.047644E-02    2.343573E-02   -1.986851E-06   -1.345600E-02    1.751716E-02    1.751716E-02   -8.924208E-07   -9.093333E-03
     4.608000E-01    0.000000E+00    2.048427E-02    2.344225E-02    8.673880E-08   -1.345987E-02    1.752629E-02    1.752629E-02    6.208731E-07   -9.098409E-03
     4.706000E-01    0.000000E+00    2.048603E-02    2.344313E-02    2.069763E-06   -1.346007E-02    1.752893E-02    1.752893E-02    2.087356E-06   -9.099534E-03
     4.804000E-01    0.000000E+00    2.048266E-02    2.343992E-02    3.495994E-06   -1.345772E-02    1.752540E-02    1.752540E-02    3.156322E-06   -9.097084E-03
     4.902000E-01    0.000000E+00    2.047508E-02    2.343415E-02    3.899204E-06   -1.345398E-02    1.751601E-02    1.751601E-02    3.477067E-06   -9.091433E-03
     5.000000E-01    0.000000E+00    2.046423E-02    2.342737E-02    2.813165E-06   -1.344999E-02    1.750109E-02    1.750109E-02    2.698884E-06   -9.082956E-03
     5.098000E-01    0.000000E+00    2.047508E-02    2.343415E-02   -3.899199E-06   -1.345398E-02    1.751601E-02    1.751601E-02   -3.477065E-06   -9.091432E-03
     5.196000E-01    0.000000E+00    2.048266E-02    2.343992E-02   -3.495989E-06   -1.345772E-02    1.752540E-02    1.752540E-02   -3.156321E-06   -9.097084E-03
     5.294000E-01    0.000000E+00    2.048603E-02    2.344313E-02   -2.069756E-06   -1.346007E-02    1.752893E-02    1.752893E-02   -2.087354E-06   -9.099534E-03
     5.392000E-01    0.000000E+00    2.048427E-02    2.344225E-02   -8.672863E-08   -1.345987E-02    1.752629E-02    1.752629E-02   -6.208703E-07   -9.098409E-03
     5.490000E-01    0.000000E+00    2.047644E-02    2.343573E-02    1.986866E-06   -1.345600E-02    1.751716E-02    1.751716E-02    8.924261E-07   -9.093333E-03
     5.588000E-01    0.000000E+00    2.046163E-02    2.342203E-02    3.684799E-06   -1.344730E-02    1.750122E-02    1.750122E-02    2.101830E-06   -9.083932E-03
     5.686000E-01    0.000000E+00    2.043890E-02    2.339962E-02    4.540843E-06   -1.343264E-02    1.747817E-02    1.747817E-02    2.656636E-06   -9.069829E-03
     5.784000E-01    0.000000E+00    2.040732E-02    2.336696E-02    4.088769E-06   -1.341087E-02    1.744767E-02    1.744767E-02    2.206138E-06   -9.050651E-03
     5.882000E-01    0.000000E+00    2.036596E-02    2.332250E-02    1.862349E-06   -1.338085E-02    1.740942E-02    1.740942E-02    3.996331E-07   -9.026021E-03
     5.980000E-01    0.000000E+00    2.040242E-02    2.334625E-02    2.377315E-05   -1.335042E-02    1.745859E-02    1.745859E-02    3.049916E-05   -8.979332E-03
     6.078000E-01    0.000000E+00    2.042553E-02    2.336539E-02    1.310303E-05   -1.337579E-02    1.748567E-02    1.748567E-02    1.437014E-05   -9.019386E-03
     6.176000E-01    0.000000E+00    2.042318E-02    2.336147E-02    1.084925E-05   -1.338673E-02    1.748489E-02    1.748489E-02    7.297173E-06   -9.040690E-03
     6.274000E-01    0.000000E+00    2.039987E-02    2.333795E-02    1.410746E-05   -1.338446E-02    1.746178E-02    1.746178E-02    6.547893E-06   -9.045744E-03
     6.372000E-01    0.000000E+00    2.036010E-02    2.329828E-02    1.997331E-05   -1.337021E-02    1.742191E-02    1.742191E-02    9.389922E-06   -9.037042E-03
     6.470000E-01    0.000000E+00    2.030838E-02    2.324592E-02    2.554245E-05   -1.334518E-02    1.737083E-02    1.737083E-02    1.309089E-05   -9.017084E-03
     6.568000E-01    0.000000E+00    2.024921E-02    2.318432E-02    2.791053E-05   -1.331060E-02    1.731409E-02    1.731409E-02    1.491842E-05   -8.988365E-03
     6.666000E-01    0.000000E+00    2.018710E-02    2.311694E-02    2.417320E-05   -1.326768E-02    1.725726E-02    1.725726E-02    1.214014E-05   -8.953384E-03
     6.764000E-01    0.000000E+00    2.012655E-02    2.304724E-02    1.142611E-05   -1.321764E-02    1.720587E-02    1.720587E-02    2.023673E-06   -8.914636E-03
     6.862000E-01    0.000000E+00    2.012005E-02    2.302004E-02    4.475145E-05   -1.316791E-02    1.722007E-02    1.722007E-02    4.022346E-05   -8.857105E-03
     6.960000E-01    0.000000E+00    2.009234E-02    2.298278E-02    3.691577E-05   -1.316108E-02    1.720191E-02    1.720191E-02    2.325829E-05   -8.876059E-03
     7.058000E-01    0.000000E+00    2.003567E-02    2.291820E-02    3.801283E-05   -1.313670E-02    1.715314E-02    1.715314E-02    1.672384E-05   -8.873109E-03
     7.156000E-01    0.000000E+00    1.995280E-02    2.282769E-02    4.489246E-05   -1.309494E-02    1.707792E-02    1.707792E-02    1.730716E-05   -8.850492E-03
     7.254000E-01    0.000000E+00    1.984649E-02    2.271261E-02    5.440450E-05   -1.303598E-02    1.698037E-02    1.698037E-02    2.169529E-05   -8.810445E-03
     7.352000E-01    0.000000E+00    1.971949E-02    2.257434E-02    6.339880E-05   -1.296001E-02    1.686463E-02    1.686463E-02    2.657529E-05   -8.755205E-03
     7.450000E-01    0.000000E+00    1.957456E-02    2.241426E-02    6.872518E-05   -1.286721E-02    1.673486E-02    1.673486E-02    2.863419E-05   -8.687009E-03
     7.548000E-01    0.000000E+00    1.941446E-02    2.223375E-02    6.723349E-05   -1.275776E-02    1.659517E-02    1.659517E-02    2.455906E-05   -8.608095E-03
     7.646000E-01    0.000000E+00    1.924195E-02    2.203418E-02    5.577356E-05   -1.263185E-02    1.644972E-02    1.644972E-02    1.103694E-05   -8.520698E-03
     7.744000E-01    0.000000E+00    1.915300E-02    2.190463E-02    9.834264E-05   -1.254020E-02    1.640138E-02    1.640138E-02    4.691172E-05   -8.451553E-03
     7.842000E-01    0.000000E+00    1.896374E-02    2.168808E-02    1.074994E-04   -1.243041E-02    1.623940E-02    1.623940E-02    4.136019E-05   -8.393843E-03
     7.940000E-01    0.000000E+00    1.871691E-02    2.141294E-02    1.251657E-04   -1.228449E-02    1.602087E-02    1.602087E-02    4.594385E-05   -8.301176E-03
     8.038000E-01    0.000000E+00    1.842327E-02    2.108718E-02    1.456297E-04   -1.210527E-02    1.575936E-02    1.575936E-02    5.461182E-05   -8.179128E-03
     8.136000E-01    0.000000E+00    1.809359E-02    2.071873E-02    1.631794E-04   -1.189556E-02    1.546845E-02    1.546845E-02    6.131318E-05   -8.033276E-03
     8.234000E-01    0.000000E+00    1.773861E-02    2.031552E-02    1.721029E-04   -1.165818E-02    1.516170E-02    1.516170E-02    5.999705E-05   -7.869197E-03
     8.332000E-01    0.000000E+00    1.736911E-02    1.988552E-02    1.666883E-04   -1.139593E-02    1.485269E-02    1.485269E-02    4.461251E-05   -7.692466E-03
     8.430000E-01    0.000000E+00    1.697041E-02    1.940580E-02    2.363180E-04   -1.111819E-02    1.453502E-02    1.453502E-02    1.013965E-04   -7.488535E-03
     8.528000E-01    0.000000E+00    1.647275E-02    1.884397E-02    2.537763E-04   -1.080385E-02    1.410152E-02    1.410152E-02    9.405303E-05   -7.286706E-03
     8.626000E-01    0.000000E+00    1.593065E-02    1.822769E-02    2.782947E-04   -1.045489E-02    1.363362E-02    1.363362E-02    9.640214E-05   -7.059181E-03
     8.724000E-01    0.000000E+00    1.532289E-02    1.753569E-02    3.081383E-04   -1.006104E-02    1.311009E-02    1.311009E-02    1.054204E-04   -6.798583E-03
     8.822000E-01    0.000000E+00    1.462823E-02    1.674671E-02    3.415726E-04   -9.612017E-03    1.250974E-02    1.250974E-02    1.180843E-04   -6.497531E-03
     8.920000E-01    0.000000E+00    1.382543E-02    1.583950E-02    3.768628E-04   -9.097549E-03    1.181137E-02    1.181137E-02    1.313704E-04   -6.148646E-03
     9.018000E-01    0.000000E+00    1.306780E-02    1.494079E-02    4.192388E-04   -8.546531E-03    1.119481E-02    1.119481E-02    1.583555E-04   -5.742789E-03
     9.116000E-01    0.000000E+00    1.217989E-02    1.392422E-02    4.483904E-04   -7.982410E-03    1.043556E-02    1.043556E-02    1.550241E-04   -5.387869E-03
     9.214000E-01    0.000000E+00    1.117507E-02    1.278549E-02    4.951187E-04   -7.340452E-03    9.564658E-03    9.564658E-03    1.725346E-04   -4.965816E-03
     9.312000E-01    0.000000E+00    1.008050E-02    1.154588E-02    5.322614E-04   -6.630644E-03    8.615113E-03    8.615113E-03    1.849788E-04   -4.487862E-03
     9.410000E-01    0.000000E+00    8.923307E-03    1.022665E-02    5.326563E-04   -5.862977E-03    7.619961E-03    7.619961E-03    1.664491E-04   -3.965239E-03
     9.508000E-01    0.000000E+00    7.773981E-03    8.880196E-03    5.932501E-04   -5.097634E-03    6.667766E-03    6.667766E-03    2.052416E-04   -3.444948E-03
     9.606000E-01    0.000000E+00    6.459781E-03    7.395205E-03    6.281031E-04   -4.253002E-03    5.524356E-03    5.524356E-03    2.191518E-04   -2.883094E-03
     9.704000E-01    0.000000E+00    5.125394E-03    5.871438E-03    6.412223E-04   -3.366944E-03    4.379350E-03    4.379350E-03    2.167531E-04   -2.286699E-03
     9.802000E-01    0.000000E+00    3.759614E-03    4.301071E-03    6.560938E-04   -2.469583E-03    3.218157E-03    3.218157E-03    2.313784E-04   -1.671216E-03
     9.900000E-01    0.000000E+00    2.328386E-03    2.693356E-03    6.493237E-04   -1.540106E-03    1.963416E-03    1.963416E-03    2.477435E-04   -1.036362E-03
     9.944958E-01    0.000000E+00    1.684348E-03    1.971693E-03    6.187216E-04   -1.114037E-03    1.397003E-03    1.397003E-03    2.500924E-04   -7.190417E-04
     9.979297E-01    0.000000E+00    1.139145E-03    1.394055E-03    5.916153E-04   -7.764013E-04    8.842353E-04    8.842353E-04    2.676446E-04   -4.598616E-04
     9.996790E-01    0.000000E+00    8.364204E-04    1.085103E-03    5.676631E-04   -5.977774E-04    5.877376E-04    5.877376E-04    2.765552E-04   -2.985377E-04
     1.000000E+00    0.000000E+00    7.661788E-04    1.021491E-03    5.645645E-04   -5.691954E-04    5.108663E-04    5.108663E-04    2.816889E-04   -2.684628E-04
     0.000000E+00    6.420898E-05    7.761826E-04    1.031832E-03   -5.713455E-04   -5.715003E-04    5.205326E-04    5.205326E-04   -2.891367E-04   -2.705686E-04
     3.210449E-04    6.420898E-05    8.492288E-04    1.097934E-03   -5.742490E-04   -5.985955E-04    6.005240E-04    6.005240E-04   -2.822094E-04   -2.979306E-04
     2.070313E-03    6.420898E-05    1.159301E-03    1.412171E-03   -5.978698E-04   -7.772183E-04    9.064303E-04    9.064303E-04   -2.724570E-04   -4.586395E-04
     5.504150E-03    6.420898E-05    1.714237E-03    1.998288E-03   -6.250460E-04   -1.115167E-03    1.430186E-03    1.430186E-03   -2.546000E-04   -7.175226E-04
     1.000000E-02    6.420898E-05    2.372591E-03    2.732440E-03   -6.551977E-04   -1.541857E-03    2.012742E-03    2.012742E-03   -2.514563E-04   -1.034089E-03
     1.980000E-02    6.420898E-05    3.827272E-03    4.361375E-03   -6.623131E-04   -2.472341E-03    3.293169E-03    3.293169E-03   -2.353791E-04   -1.668208E-03
     2.960000E-02    6.420898E-05    5.217506E-03    5.953489E-03   -6.468301E-04   -3.371453E-03    4.481523E-03    4.481523E-03   -2.202165E-04   -2.282900E-03
     3.940000E-02    6.420898E-05    6.576182E-03    7.499632E-03   -6.337706E-04   -4.258469E-03    5.652732E-03    5.652732E-03   -2.227685E-04   -2.878576E-03
     4.920000E-02    6.420898E-05    7.910051E-03    9.002672E-03   -5.984869E-04   -5.104352E-03    6.817430E-03    6.817430E-03   -2.083417E-04   -3.440282E-03
     5.900000E-02    6.420898E-05    9.081003E-03    1.036802E-02   -5.382274E-04   -5.871217E-03    7.793987E-03    7.793987E-03   -1.700670E-04   -3.959360E-03
     6.880000E-02    6.420898E-05    1.025940E-02    1.170644E-02   -5.372404E-04   -6.639796E-03    8.812354E-03    8.812354E-03   -1.882203E-04   -4.481528E-03
     7.860000E-02    6.420898E-05    1.137161E-02    1.296204E-02   -4.994320E-04   -7.350607E-03    9.781176E-03    9.781176E-03   -1.752264E-04   -4.959306E-03
     8.840000E-02    6.420898E-05    1.239048E-02    1.411354E-02   -4.519646E-04   -7.993659E-03    1.066743E-02    1.066743E-02   -1.569935E-04   -5.381462E-03
     9.820000E-02    6.420898E-05    1.328888E-02    1.513969E-02   -4.220004E-04   -8.558966E-03    1.143807E-02    1.143807E-02   -1.594293E-04   -5.736763E-03
     1.080000E-01    6.420898E-05    1.407089E-02    1.606052E-02   -3.807179E-04   -9.110241E-03    1.208126E-02    1.208126E-02   -1.337879E-04   -6.140276E-03
     1.178000E-01    6.420898E-05    1.488534E-02    1.697785E-02   -3.448324E-04   -9.625321E-03    1.279282E-02    1.279282E-02   -1.201419E-04   -6.488977E-03
     1.276000E-01    6.420898E-05    1.559054E-02    1.777619E-02   -3.108455E-04   -1.007489E-02    1.340490E-02    1.340490E-02   -1.070933E-04   -6.789849E-03
     1.374000E-01    6.420898E-05    1.620774E-02    1.847679E-02   -2.804918E-04   -1.046922E-02    1.393868E-02    1.393868E-02   -9.766544E-05   -7.050273E-03
     1.472000E-01    6.420898E-05    1.675815E-02    1.910092E-02   -2.555061E-04   -1.081860E-02    1.441539E-02    1.441539E-02   -9.488177E-05   -7.277627E-03
     1.570000E-01    6.420898E-05    1.726302E-02    1.966983E-02   -2.376230E-04   -1.113329E-02    1.485620E-02    1.485620E-02   -1.017656E-04   -7.479292E-03
     1.668000E-01    6.420898E-05    1.767069E-02    2.015700E-02   -1.687600E-04   -1.141199E-02    1.518438E-02    1.518438E-02   -4.581327E-05   -7.682718E-03
     1.766000E-01    6.420898E-05    1.804889E-02    2.059469E-02   -1.738642E-04   -1.167422E-02    1.550308E-02    1.550308E-02   -6.108345E-05   -7.859005E-03
     1.864000E-01    6.420898E-05    1.841095E-02    2.100422E-02   -1.646120E-04   -1.191166E-02    1.581768E-02    1.581768E-02   -6.221518E-05   -8.022782E-03
     1.962000E-01    6.420898E-05    1.874611E-02    2.137763E-02   -1.467152E-04   -1.212152E-02    1.611460E-02    1.611460E-02   -5.525936E-05   -8.168473E-03
     2.060000E-01    6.420898E-05    1.904363E-02    2.170698E-02   -1.258859E-04   -1.230096E-02    1.638028E-02    1.638028E-02   -4.626689E-05   -8.290501E-03
     2.158000E-01    6.420898E-05    1.929273E-02    2.198433E-02   -1.078359E-04   -1.244718E-02    1.660113E-02    1.660113E-02   -4.128865E-05   -8.383291E-03
     2.256000E-01    6.420898E-05    1.948267E-02    2.220173E-02   -9.827716E-05   -1.255736E-02    1.676360E-02    1.676360E-02   -4.637555E-05   -8.441266E-03
     2.354000E-01    6.420898E-05    1.958302E-02    2.234005E-02   -7.294325E-05   -1.275840E-02    1.682600E-02    1.682600E-02   -2.204561E-06   -8.478955E-03
     2.452000E-01    6.420898E-05    1.975408E-02    2.253988E-02   -6.807555E-05   -1.277518E-02    1.696828E-02    1.696828E-02   -2.500277E-05   -8.597049E-03
     2.550000E-01    6.420898E-05    1.991786E-02    2.272346E-02   -6.938802E-05   -1.288450E-02    1.711227E-02    1.711227E-02   -2.902132E-05   -8.675678E-03
     2.648000E-01    6.420898E-05    2.006548E-02    2.288580E-02   -6.386205E-05   -1.297726E-02    1.724517E-02    1.724517E-02   -2.684860E-05   -8.743709E-03
     2.746000E-01    6.420898E-05    2.019419E-02    2.302553E-02   -5.464779E-05   -1.305327E-02    1.736284E-02    1.736284E-02   -2.179755E-05   -8.798904E-03
     2.844000E-01    6.420898E-05    2.030121E-02    2.314127E-02   -4.489540E-05   -1.311234E-02    1.746115E-02    1.746115E-02   -1.718111E-05   -8.839028E-03
     2.942000E-01    6.420898E-05    2.038380E-02    2.323165E-02   -3.775502E-05   -1.315431E-02    1.753596E-02    1.753596E-02   -1.631223E-05   -8.861841E-03
     3.040000E-01    6.420898E-05    2.043920E-02    2.329528E-02   -3.637681E-05   -1.317898E-02    1.758312E-02    1.758312E-02   -2.250385E-05   -8.865109E-03
     3.138000E-01    6.420898E-05    2.046465E-02    2.333080E-02   -4.391092E-05   -1.318618E-02    1.759850E-02    1.759850E-02   -3.906892E-05   -8.846593E-03
     3.236000E-01    6.420898E-05    2.047737E-02    2.336374E-02   -1.186665E-05   -1.323570E-02    1.759100E-02    1.759100E-02   -2.184812E-06   -8.903363E-03
     3.334000E-01    6.420898E-05    2.054053E-02    2.343551E-02   -2.451446E-05   -1.328553E-02    1.764554E-02    1.764554E-02   -1.230755E-05   -8.941813E-03
     3.432000E-01    6.420898E-05    2.060442E-02    2.350428E-02   -2.812777E-05   -1.332832E-02    1.770457E-02    1.770457E-02   -1.503939E-05   -8.976615E-03
     3.530000E-01    6.420898E-05    2.066455E-02    2.356658E-02   -2.561091E-05   -1.336286E-02    1.776252E-02    1.776252E-02   -1.311272E-05   -9.005271E-03
     3.628000E-01    6.420898E-05    2.071640E-02    2.361897E-02   -1.986822E-05   -1.338794E-02    1.781384E-02    1.781384E-02   -9.259886E-06   -9.025283E-03
     3.726000E-01    6.420898E-05    2.075548E-02    2.365798E-02   -1.380405E-05   -1.340232E-02    1.785298E-02    1.785298E-02   -6.213272E-06   -9.034154E-03
     3.824000E-01    6.420898E-05    2.077728E-02    2.368016E-02   -1.032274E-05   -1.340481E-02    1.787439E-02    1.787439E-02   -6.705243E-06   -9.029388E-03
     3.922000E-01    6.420898E-05    2.077728E-02    2.368206E-02   -1.232863E-05   -1.339417E-02    1.787251E-02    1.787251E-02   -1.346817E-05   -9.008488E-03
     4.020000E-01    6.420898E-05    2.075100E-02    2.366021E-02   -2.272605E-05   -1.336919E-02    1.784179E-02    1.784179E-02   -2.923441E-05   -8.968955E-03
     4.118000E-01    6.420898E-05    2.072250E-02    2.364482E-02   -2.338929E-06   -1.339903E-02    1.780018E-02    1.780018E-02   -6.864617E-07   -9.014585E-03
     4.216000E-01    6.420898E-05    2.076471E-02    2.368950E-02   -4.492347E-06   -1.342893E-02    1.783993E-02    1.783993E-02   -2.462752E-06   -9.039051E-03
     4.314000E-01    6.420898E-05    2.079699E-02    2.372231E-02   -4.879420E-06   -1.345060E-02    1.787166E-02    1.787166E-02   -2.884614E-06   -9.058094E-03
     4.412000E-01    6.420898E-05    2.082025E-02    2.374481E-02   -3.966377E-06   -1.346519E-02    1.789569E-02    1.789569E-02   -2.302754E-06   -9.072091E-03
     4.510000E-01    6.420898E-05    2.083542E-02    2.375851E-02   -2.219446E-06   -1.347384E-02    1.791233E-02    1.791233E-02   -1.067878E-06   -9.081416E-03
     4.608000E-01    6.420898E-05    2.084344E-02    2.376498E-02   -1.048535E-07   -1.347769E-02    1.792190E-02    1.792190E-02    4.693100E-07   -9.086444E-03
     4.706000E-01    6.420898E-05    2.084523E-02    2.376574E-02    1.911172E-06   -1.347788E-02    1.792472E-02    1.792472E-02    1.958104E-06   -9.087550E-03
     4.804000E-01    6.420898E-05    2.084172E-02    2.376233E-02    3.362403E-06   -1.347556E-02    1.792110E-02    1.792110E-02    3.047797E-06   -9.085110E-03
     4.902000E-01    6.420898E-05    2.083384E-02    2.375631E-02    3.782612E-06   -1.347186E-02    1.791136E-02    1.791136E-02    3.387686E-06   -9.079497E-03
     5.000000E-01    6.420898E-05    2.082251E-02    2.374919E-02    2.705571E-06   -1.346793E-02    1.789583E-02    1.789583E-02    2.627064E-06   -9.071089E-03
     5.098000E-01    6.420898E-05    2.083384E-02    2.375631E-02   -3.782607E-06   -1.347186E-02    1.791136E-02    1.791136E-02   -3.387684E-06   -9.079497E-03
     5.196000E-01    6.420898E-05    2.084172E-02    2.376233E-02   -3.362399E-06   -1.347556E-02    1.792110E-02    1.792110E-02   -3.047796E-06   -9.085110E-03
     5.294000E-01    6.420898E-05    2.084523E-02    2.376574E-02   -1.911165E-06   -1.347788E-02    1.792472E-02    1.792472E-02   -1.958102E-06   -9.087550E-03
     5.392000E-01    6.420898E-05    2.084344E-02    2.376498E-02    1.048640E-07   -1.347769E-02    1.792190E-02    1.792190E-02   -4.693069E-07   -9.086444E-03
     5.490000E-01    6.420898E-05    2.083542E-02    2.375851E-02    2.219462E-06   -1.347384E-02    1.791233E-02    1.791233E-02    1.067883E-06   -9.081416E-03
     5.588000E-01    6.420898E-05    2.082025E-02    2.374481E-02    3.966399E-06   -1.346519E-02    1.789569E-02    1.789569E-02    2.302764E-06   -9.072091E-03
     5.686000E-01    6.420898E-05    2.079699E-02    2.372231E-02    4.879449E-06   -1.345060E-02    1.787166E-02    1.787166E-02    2.884630E-06   -9.058094E-03
     5.784000E-01    6.420898E-05    2.076471E-02    2.368950E-02    4.492383E-06   -1.342893E-02    1.783993E-02    1.783993E-02    2.462777E-06   -9.039051E-03
     5.882000E-01    6.420898E-05    2.072250E-02    2.364482E-02    2.338972E-06   -1.339903E-02    1.780017E-02    1.780017E-02    6.864982E-07   -9.014585E-03
     5.980000E-01    6.420898E-05    2.075100E-02    2.366021E-02    2.272601E-05   -1.336919E-02    1.784179E-02    1.784179E-02    2.923439E-05   -8.968955E-03
     6.078000E-01    6.420898E-05    2.077728E-02    2.368206E-02    1.232858E-05   -1.339417E-02    1.787251E-02    1.787251E-02    1.346813E-05   -9.008487E-03
     6.176000E-01    6.420898E-05    2.077728E-02    2.368016E-02    1.032270E-05   -1.340481E-02    1.787439E-02    1.787439E-02    6.705219E-06   -9.029388E-03
     6.274000E-01    6.420898E-05    2.075548E-02    2.365798E-02    1.380404E-05   -1.340232E-02    1.785298E-02    1.785298E-02    6.213264E-06   -9.034154E-03
     6.372000E-01    6.420898E-05    2.071640E-02    2.361897E-02    1.986824E-05   -1.338794E-02    1.781384E-02    1.781384E-02    9.259896E-06   -9.025283E-03
     6.470000E-01    6.420898E-05    2.066455E-02    2.356658E-02    2.561095E-05   -1.336286E-02    1.776251E-02    1.776251E-02    1.311274E-05   -9.005271E-03
     6.568000E-01    6.420898E-05    2.060442E-02    2.350428E-02    2.812782E-05   -1.332832E-02    1.770457E-02    1.770457E-02    1.503943E-05   -8.976615E-03
     6.666000E-01    6.420898E-05    2.054053E-02    2.343551E-02    2.451450E-05   -1.328553E-02    1.764554E-02    1.764554E-02    1.230758E-05   -8.941813E-03
     6.764000E-01    6.420898E-05    2.047737E-02    2.336374E-02    1.186665E-05   -1.323570E-02    1.759100E-02    1.759100E-02    2.184816E-06   -8.903362E-03
     6.862000E-01    6.420898E-05    2.046465E-02    2.333080E-02    4.391088E-05   -1.318618E-02    1.759850E-02    1.759850E-02    3.906889E-05   -8.846593E-03
     6.960000E-01    6.420898E-05    2.043920E-02    2.329528E-02    3.637676E-05   -1.317898E-02    1.758312E-02    1.758312E-02    2.250382E-05   -8.865109E-03