 VARIABLES="x","y","eT","eE","eqx","eqy","pT","pE","pqx","pqy"
 ZONE I = 109 J = 109
     0.000000E+00    0.000000E+00    1.083050E-01    2.165712E-01   -1.001618E-01   -1.222170E-01    3.890538E-05    3.890538E-05   -2.119530E-05   -2.034736E-05
     3.210449E-04    0.000000E+00    1.089191E-01    2.177957E-01   -1.001547E-01   -1.222158E-01    4.240104E-05    4.240104E-05   -2.096345E-05   -2.175746E-05
     2.070313E-03    0.000000E+00    1.089605E-01    2.178662E-01   -1.001198E-01   -1.220438E-01    5.481437E-05    5.481437E-05   -2.041903E-05   -2.855051E-05
     5.504150E-03    0.000000E+00    1.096041E-01    2.191330E-01   -1.000008E-01   -1.234136E-01    7.517905E-05    7.517905E-05   -1.974366E-05   -3.972388E-05
     1.000000E-02    0.000000E+00    1.130350E-01    2.259718E-01   -9.966744E-02   -1.298996E-01    9.822873E-05    9.822873E-05   -1.889168E-05   -5.271096E-05
     1.980000E-02    0.000000E+00    1.162336E-01    2.323224E-01   -9.907964E-02   -1.339852E-01    1.448403E-04    1.448403E-04   -1.742627E-05   -7.815106E-05
     2.960000E-02    0.000000E+00    1.201995E-01    2.402129E-01   -9.805478E-02   -1.406709E-01    1.860600E-04    1.860600E-04   -1.572600E-05   -1.010413E-04
     3.940000E-02    0.000000E+00    1.237070E-01    2.471894E-01   -9.693552E-02   -1.459406E-01    2.246780E-04    2.246780E-04   -1.482295E-05   -1.221609E-04
     4.920000E-02    0.000000E+00    1.272314E-01    2.542021E-01   -9.536070E-02   -1.516783E-01    2.607476E-04    2.607476E-04   -1.393515E-05   -1.416231E-04
     5.900000E-02    0.000000E+00    1.313025E-01    2.623119E-01   -9.320575E-02   -1.577893E-01    2.930879E-04    2.930879E-04   -1.220434E-05   -1.596966E-04
     6.880000E-02    0.000000E+00    1.344214E-01    2.685188E-01   -9.179880E-02   -1.626526E-01    3.239898E-04    3.239898E-04   -1.196370E-05   -1.768832E-04
     7.860000E-02    0.000000E+00    1.374686E-01    2.745838E-01   -8.996636E-02   -1.673058E-01    3.533990E-04    3.533990E-04   -1.138115E-05   -1.929235E-04
     8.840000E-02    0.000000E+00    1.405166E-01    2.806520E-01   -8.774334E-02   -1.718376E-01    3.810938E-04    3.810938E-04   -1.076312E-05   -2.077876E-04
     9.820000E-02    0.000000E+00    1.436377E-01    2.868685E-01   -8.516466E-02   -1.763368E-01    4.068522E-04    4.068522E-04   -1.041607E-05   -2.214457E-04
     1.080000E-01    0.000000E+00    1.466734E-01    2.929173E-01   -8.221538E-02   -1.809395E-01    4.294106E-04    4.294106E-04   -8.844835E-06   -2.347252E-04
     1.178000E-01    0.000000E+00    1.499433E-01    2.994345E-01   -7.907888E-02   -1.855688E-01    4.520842E-04    4.520842E-04   -8.727740E-06   -2.473604E-04
     1.276000E-01    0.000000E+00    1.526049E-01    3.047362E-01   -7.642624E-02   -1.893687E-01    4.735799E-04    4.735799E-04   -8.337234E-06   -2.591205E-04
     1.374000E-01    0.000000E+00    1.548116E-01    3.091293E-01   -7.410585E-02   -1.925381E-01    4.938077E-04    4.938077E-04   -7.861909E-06   -2.699858E-04
     1.472000E-01    0.000000E+00    1.567167E-01    3.129207E-01   -7.196610E-02   -1.952756E-01    5.126775E-04    5.126775E-04   -7.490364E-06   -2.799366E-04
     1.570000E-01    0.000000E+00    1.584736E-01    3.164171E-01   -6.985539E-02   -1.977800E-01    5.300994E-04    5.300994E-04   -7.411192E-06   -2.889531E-04
     1.668000E-01    0.000000E+00    1.603744E-01    3.202040E-01   -6.759256E-02   -2.000148E-01    5.447912E-04    5.447912E-04   -5.739858E-06   -2.980271E-04
     1.766000E-01    0.000000E+00    1.629010E-01    3.252416E-01   -6.439882E-02   -2.030984E-01    5.603316E-04    5.603316E-04   -5.903709E-06   -3.068580E-04
     1.864000E-01    0.000000E+00    1.651998E-01    3.298244E-01   -6.135456E-02   -2.059164E-01    5.751266E-04    5.751266E-04   -5.752103E-06   -3.150733E-04
     1.962000E-01    0.000000E+00    1.672765E-01    3.339640E-01   -5.845629E-02   -2.084640E-01    5.890787E-04    5.890787E-04   -5.426015E-06   -3.226359E-04
     2.060000E-01    0.000000E+00    1.691371E-01    3.376721E-01   -5.570050E-02   -2.107365E-01    6.020905E-04    6.020905E-04   -5.066423E-06   -3.295084E-04
     2.158000E-01    0.000000E+00    1.707872E-01    3.409604E-01   -5.308372E-02   -2.127290E-01    6.140645E-04    6.140645E-04   -4.814302E-06   -3.356535E-04
     2.256000E-01    0.000000E+00    1.722326E-01    3.438404E-01   -5.060244E-02   -2.144367E-01    6.249034E-04    6.249034E-04   -4.810630E-06   -3.410339E-04
     2.354000E-01    0.000000E+00    1.735643E-01    3.464955E-01   -4.875702E-02   -2.159071E-01    6.331137E-04    6.331137E-04   -3.110717E-06   -3.463159E-04
     2.452000E-01    0.000000E+00    1.747063E-01    3.487698E-01   -4.673537E-02   -2.170648E-01    6.428168E-04    6.428168E-04   -3.482510E-06   -3.520400E-04
     2.550000E-01    0.000000E+00    1.759344E-01    3.512167E-01   -4.465770E-02   -2.182893E-01    6.520813E-04    6.520813E-04   -3.558458E-06   -3.573442E-04
     2.648000E-01    0.000000E+00    1.772071E-01    3.537534E-01   -4.254684E-02   -2.195484E-01    6.608418E-04    6.608418E-04   -3.435378E-06   -3.622029E-04
     2.746000E-01    0.000000E+00    1.784833E-01    3.562975E-01   -4.042564E-02   -2.208103E-01    6.690333E-04    6.690333E-04   -3.210088E-06   -3.665903E-04
     2.844000E-01    0.000000E+00    1.797215E-01    3.587663E-01   -3.831694E-02   -2.220429E-01    6.765905E-04    6.765905E-04   -2.979407E-06   -3.704809E-04
     2.942000E-01    0.000000E+00    1.808804E-01    3.610774E-01   -3.624356E-02   -2.232141E-01    6.834483E-04    6.834483E-04   -2.840151E-06   -3.738492E-04
     3.040000E-01    0.000000E+00    1.819189E-01    3.631482E-01   -3.422836E-02   -2.242920E-01    6.895415E-04    6.895415E-04   -2.889140E-06   -3.766693E-04
     3.138000E-01    0.000000E+00    1.827954E-01    3.648961E-01   -3.229416E-02   -2.252445E-01    6.948050E-04    6.948050E-04   -3.223190E-06   -3.789158E-04
     3.236000E-01    0.000000E+00    1.832316E-01    3.657646E-01   -3.020489E-02   -2.259210E-01    6.985544E-04    6.985544E-04   -1.611315E-06   -3.824380E-04
     3.334000E-01    0.000000E+00    1.837908E-01    3.668778E-01   -2.841052E-02   -2.264558E-01    7.038100E-04    7.038100E-04   -1.908067E-06   -3.856288E-04
     3.432000E-01    0.000000E+00    1.843702E-01    3.680317E-01   -2.660943E-02   -2.269904E-01    7.087965E-04    7.087965E-04   -1.959609E-06   -3.885184E-04
     3.530000E-01    0.000000E+00    1.849560E-01    3.691986E-01   -2.480304E-02   -2.275187E-01    7.134492E-04    7.134492E-04   -1.852737E-06   -3.910768E-04
     3.628000E-01    0.000000E+00    1.855344E-01    3.703510E-01   -2.299274E-02   -2.280345E-01    7.177037E-04    7.177037E-04   -1.674247E-06   -3.932735E-04
     3.726000E-01    0.000000E+00    1.860913E-01    3.714611E-01   -2.117994E-02   -2.285317E-01    7.214955E-04    7.214955E-04   -1.510934E-06   -3.950786E-04
     3.824000E-01    0.000000E+00    1.866130E-01    3.725013E-01   -1.936602E-02   -2.290041E-01    7.247599E-04    7.247599E-04   -1.449595E-06   -3.964617E-04
     3.922000E-01    0.000000E+00    1.870857E-01    3.734439E-01   -1.755240E-02   -2.294455E-01    7.274326E-04    7.274326E-04   -1.577026E-06   -3.973927E-04
     4.020000E-01    0.000000E+00    1.874954E-01    3.742613E-01   -1.574047E-02   -2.298498E-01    7.294489E-04    7.294489E-04   -1.980021E-06   -3.978413E-04
     4.118000E-01    0.000000E+00    1.878636E-01    3.749970E-01   -1.375341E-02   -2.302546E-01    7.301411E-04    7.301411E-04   -5.815991E-07   -3.998809E-04
     4.216000E-01    0.000000E+00    1.880336E-01    3.753343E-01   -1.223367E-02   -2.305091E-01    7.328087E-04    7.328087E-04   -6.071783E-07   -4.015549E-04
     4.314000E-01    0.000000E+00    1.882454E-01    3.757557E-01   -1.078630E-02   -2.307538E-01    7.350057E-04    7.350057E-04   -5.774959E-07   -4.029048E-04
     4.412000E-01    0.000000E+00    1.884769E-01    3.762171E-01   -9.377504E-03   -2.309798E-01    7.367705E-04    7.367705E-04   -5.055460E-07   -4.039632E-04
     4.510000E-01    0.000000E+00    1.887063E-01    3.766745E-01   -7.973498E-03   -2.311783E-01    7.381411E-04    7.381411E-04   -4.043223E-07   -4.047627E-04
     4.608000E-01    0.000000E+00    1.889115E-01    3.770839E-01   -6.540495E-03   -2.313405E-01    7.391559E-04    7.391559E-04   -2.868186E-07   -4.053359E-04
     4.706000E-01    0.000000E+00    1.890706E-01    3.774013E-01   -5.044709E-03   -2.314574E-01    7.398532E-04    7.398532E-04   -1.660288E-07   -4.057154E-04
     4.804000E-01    0.000000E+00    1.891615E-01    3.775827E-01   -3.452353E-03   -2.315202E-01    7.402711E-04    7.402711E-04   -5.494681E-08   -4.059339E-04
     4.902000E-01    0.000000E+00    1.891623E-01    3.775841E-01   -1.729639E-03   -2.315201E-01    7.404479E-04    7.404479E-04    3.343367E-08   -4.060238E-04
     5.000000E-01    0.000000E+00    1.890509E-01    3.773615E-01    1.572187E-04   -2.314483E-01    7.404218E-04    7.404218E-04    8.611876E-08   -4.060177E-04
     5.098000E-01    0.000000E+00    1.891623E-01    3.775841E-01    1.729639E-03   -2.315201E-01    7.404479E-04    7.404479E-04   -3.343363E-08   -4.060238E-04
     5.196000E-01    0.000000E+00    1.891615E-01    3.775827E-01    3.452353E-03   -2.315202E-01    7.402711E-04    7.402711E-04    5.494690E-08   -4.059339E-04
     5.294000E-01    0.000000E+00    1.890706E-01    3.774013E-01    5.044709E-03   -2.314574E-01    7.398532E-04    7.398532E-04    1.660290E-07   -4.057154E-04
     5.392000E-01    0.000000E+00    1.889115E-01    3.770839E-01    6.540495E-03   -2.313405E-01    7.391559E-04    7.391559E-04    2.868189E-07   -4.053359E-04
     5.490000E-01    0.000000E+00    1.887063E-01    3.766745E-01    7.973498E-03   -2.311783E-01    7.381411E-04    7.381411E-04    4.043227E-07   -4.047627E-04
     5.588000E-01    0.000000E+00    1.884769E-01    3.762171E-01    9.377504E-03   -2.309798E-01    7.367705E-04    7.367705E-04    5.055466E-07   -4.039632E-04
     5.686000E-01    0.000000E+00    1.882454E-01    3.757557E-01    1.078630E-02   -2.307538E-01    7.350057E-04    7.350057E-04    5.774966E-07   -4.029047E-04
     5.784000E-01    0.000000E+00    1.880336E-01    3.753343E-01    1.223367E-02   -2.305091E-01    7.328087E-04    7.328087E-04    6.071791E-07   -4.015549E-04
     5.882000E-01    0.000000E+00    1.878636E-01    3.749970E-01    1.375341E-02   -2.302546E-01    7.301411E-04    7.301411E-04    5.816001E-07   -3.998809E-04
     5.980000E-01    0.000000E+00    1.874954E-01    3.742613E-01    1.574047E-02   -2.298498E-01    7.294489E-04    7.294489E-04    1.980020E-06   -3.978413E-04
     6.078000E-01    0.000000E+00    1.870857E-01    3.734439E-01    1.755240E-02   -2.294455E-01    7.274326E-04    7.274326E-04    1.577024E-06   -3.973926E-04
     6.176000E-01    0.000000E+00    1.866130E-01    3.725013E-01    1.936602E-02   -2.290041E-01    7.247599E-04    7.247599E-04    1.449594E-06   -3.964617E-04
     6.274000E-01    0.000000E+00    1.860913E-01    3.714611E-01    2.117994E-02   -2.285317E-01    7.214954E-04    7.214954E-04    1.510934E-06   -3.950786E-04
     6.372000E-01    0.000000E+00    1.855344E-01    3.703510E-01    2.299274E-02   -2.280345E-01    7.177037E-04    7.177037E-04    1.674247E-06   -3.932735E-04
     6.470000E-01    0.000000E+00    1.849560E-01    3.691986E-01    2.480304E-02   -2.275187E-01    7.134492E-04    7.134492E-04    1.852738E-06   -3.910768E-04
     6.568000E-01    0.000000E+00    1.843702E-01    3.680317E-01    2.660943E-02   -2.269904E-01    7.087964E-04    7.087964E-04    1.959611E-06   -3.885184E-04
     6.666000E-01    0.000000E+00    1.837908E-01    3.668778E-01    2.841052E-02   -2.264558E-01    7.038100E-04    7.038100E-04    1.908068E-06   -3.856288E-04
     6.764000E-01    0.000000E+00    1.832316E-01    3.657646E-01    3.020489E-02   -2.259210E-01    6.985544E-04    6.985544E-04    1.611315E-06   -3.824379E-04
     6.862000E-01    0.000000E+00    1.827954E-01    3.648961E-01    3.229416E-02   -2.252445E-01    6.948050E-04    6.948050E-04    3.223190E-06   -3.789158E-04
     6.960000E-01    0.000000E+00    1.819189E-01    3.631482E-01    3.422836E-02   -2.242920E-01    6.895415E-04    6.895415E-04    2.889139E-06   -3.766693E-04
     7.058000E-01    0.000000E+00    1.808804E-01    3.610774E-01    3.624356E-02   -2.232141E-01    6.834483E-04    6.834483E-04    2.840151E-06   -3.738492E-04
     7.156000E-01    0.000000E+00    1.797215E-01    3.587663E-01    3.831694E-02   -2.220429E-01    6.765905E-04    6.765905E-04    2.979407E-06   -3.704809E-04
     7.254000E-01    0.000000E+00    1.784833E-01    3.562975E-01    4.042564E-02   -2.208103E-01    6.690333E-04    6.690333E-04    3.210089E-06   -3.665903E-04
     7.352000E-01    0.000000E+00    1.772071E-01    3.537534E-01    4.254684E-02   -2.195484E-01    6.608418E-04    6.608418E-04    3.435379E-06   -3.622029E-04
     7.450000E-01    0.000000E+00    1.759344E-01    3.512167E-01    4.465770E-02   -2.182893E-01    6.520813E-04    6.520813E-04    3.558459E-06   -3.573442E-04
     7.548000E-01    0.000000E+00    1.747063E-01    3.487698E-01    4.673537E-02   -2.170648E-01    6.428168E-04    6.428168E-04    3.482511E-06   -3.520400E-04
     7.646000E-01    0.000000E+00    1.735643E-01    3.464955E-01    4.875702E-02   -2.159071E-01    6.331136E-04    6.331136E-04    3.110716E-06   -3.463159E-04
     7.744000E-01    0.000000E+00    1.722326E-01    3.438404E-01    5.060244E-02   -2.144367E-01    6.249034E-04    6.249034E-04    4.810629E-06   -3.410339E-04
     7.842000E-01    0.000000E+00    1.707872E-01    3.409604E-01    5.308372E-02   -2.127290E-01    6.140645E-04    6.140645E-04    4.814302E-06   -3.356535E-04
     7.940000E-01    0.000000E+00    1.691371E-01    3.376721E-01    5.570050E-02   -2.107365E-01    6.020905E-04    6.020905E-04    5.066423E-06   -3.295084E-04
     8.038000E-01    0.000000E+00    1.672765E-01    3.339640E-01    5.845629E-02   -2.084640E-01    5.890787E-04    5.890787E-04    5.426016E-06   -3.226359E-04
     8.136000E-01    0.000000E+00    1.651998E-01    3.298244E-01    6.135456E-02   -2.059164E-01    5.751266E-04    5.751266E-04    5.752104E-06   -3.150733E-04
     8.234000E-01    0.000000E+00    1.629010E-01    3.252416E-01    6.439882E-02   -2.030984E-01    5.603316E-04    5.603316E-04    5.903710E-06   -3.068580E-04
     8.332000E-01    0.000000E+00    1.603744E-01    3.202040E-01    6.759256E-02   -2.000148E-01    5.447912E-04    5.447912E-04    5.739858E-06   -2.980271E-04
     8.430000E-01    0.000000E+00    1.584736E-01    3.164171E-01    6.985539E-02   -1.977800E-01    5.300994E-04    5.300994E-04    7.411191E-06   -2.889531E-04
     8.528000E-01    0.000000E+00    1.567167E-01    3.129207E-01    7.196610E-02   -1.952756E-01    5.126775E-04    5.126775E-04    7.490363E-06   -2.799366E-04
     8.626000E-01    0.000000E+00    1.548116E-01    3.091293E-01    7.410585E-02   -1.925381E-01    4.938077E-04    4.938077E-04    7.861909E-06   -2.699858E-04
     8.724000E-01    0.000000E+00    1.526049E-01    3.047362E-01    7.642624E-02   -1.893687E-01    4.735799E-04    4.735799E-04    8.337234E-06   -2.591205E-04
     8.822000E-01    0.000000E+00    1.499433E-01    2.994345E-01    7.907888E-02   -1.855688E-01    4.520841E-04    4.520841E-04    8.727741E-06   -2.473604E-04
     8.920000E-01    0.000000E+00    1.466734E-01    2.929173E-01    8.221538E-02   -1.809395E-01    4.294106E-04    4.294106E-04    8.844835E-06   -2.347252E-04
     9.018000E-01    0.000000E+00    1.436377E-01    2.868685E-01    8.516466E-02   -1.763368E-01    4.068522E-04    4.068522E-04    1.041607E-05   -2.214457E-04
     9.116000E-01    0.000000E+00    1.405166E-01    2.806520E-01    8.774334E-02   -1.718376E-01    3.810938E-04    3.810938E-04    1.076312E-05   -2.077876E-04
     9.214000E-01    0.000000E+00    1.374686E-01    2.745838E-01    8.996636E-02   -1.673058E-01    3.533990E-04    3.533990E-04    1.138115E-05   -1.929235E-04
     9.312000E-01    0.000000E+00    1.344214E-01    2.685188E-01    9.179880E-02   -1.626526E-01    3.239898E-04    3.239898E-04    1.196370E-05   -1.768832E-04
     9.410000E-01    0.000000E+00    1.313025E-01    2.623119E-01    9.320575E-02   -1.577893E-01    2.930879E-04    2.930879E-04    1.220434E-05   -1.596966E-04
     9.508000E-01    0.000000E+00    1.272314E-01    2.542021E-01    9.536070E-02   -1.516783E-01    2.607476E-04    2.607476E-04    1.393515E-05   -1.416231E-04
     9.606000E-01    0.000000E+00    1.237070E-01    2.471894E-01    9.693552E-02   -1.459406E-01    2.246780E-04    2.246780E-04    1.482295E-05   -1.221609E-04
     9.704000E-01    0.000000E+00    1.201995E-01    2.402129E-01    9.805478E-02   -1.406709E-01    1.860600E-04    1.860600E-04    1.572600E-05   -1.010413E-04
     9.802000E-01    0.000000E+00    1.162336E-01    2.323224E-01    9.907964E-02   -1.339852E-01    1.448403E-04    1.448403E-04    1.742627E-05   -7.815106E-05
     9.900000E-01    0.000000E+00    1.130350E-01    2.259718E-01    9.966744E-02   -1.298996E-01    9.822873E-05    9.822873E-05    1.889169E-05   -5.271095E-05
     9.944958E-01    0.000000E+00    1.096041E-01    2.191330E-01    1.000008E-01   -1.234136E-01    7.517905E-05    7.517905E-05    1.974366E-05   -3.972388E-05
     9.979297E-01    0.000000E+00    1.089605E-01    2.178662E-01    1.001198E-01   -1.220438E-01    5.481437E-05    5.481437E-05    2.041903E-05   -2.855051E-05
     9.996790E-01    0.000000E+00    1.089191E-01    2.177957E-01    1.001547E-01   -1.222158E-01    4.240104E-05    4.240104E-05    2.096345E-05   -2.175746E-05
     1.000000E+00    0.000000E+00    1.083050E-01    2.165712E-01    1.001618E-01   -1.222170E-01    3.890538E-05    3.890538E-05    2.119530E-05   -2.034735E-05
     0.000000E+00    6.420898E-05    1.087388E-01    2.174383E-01   -1.001690E-01   -1.222185E-01    3.930632E-05    3.930632E-05   -2.145399E-05   -2.036968E-05
     3.210449E-04    6.420898E-05    1.089317E-01    2.178205E-01   -1.001618E-01   -1.222173E-01    4.286587E-05    4.286587E-05   -2.120249E-05   -2.174070E-05
     2.070313E-03    6.420898E-05    1.089515E-01    2.178476E-01   -1.001270E-01   -1.220434E-01    5.550612E-05    5.550612E-05   -2.063365E-05   -2.851205E-05
     5.504150E-03    6.420898E-05    1.096039E-01    2.191317E-01   -1.000079E-01   -1.234181E-01    7.613297E-05    7.613297E-05   -1.993960E-05   -3.967681E-05
     1.000000E-02    6.420898E-05    1.130395E-01    2.259794E-01   -9.967480E-02   -1.299010E-01    9.953867E-05    9.953867E-05   -1.906900E-05   -5.266423E-05
     1.980000E-02    6.420898E-05    1.162407E-01    2.323346E-01   -9.908679E-02   -1.339912E-01    1.467282E-04    1.467282E-04   -1.757836E-05   -7.810193E-05
     2.960000E-02    6.420898E-05    1.202030E-01    2.402176E-01   -9.806236E-02   -1.406765E-01    1.885341E-04    1.885341E-04   -1.587135E-05   -1.009919E-04
     3.940000E-02    6.420898E-05    1.237194E-01    2.472111E-01   -9.694126E-02   -1.459497E-01    2.276426E-04    2.276426E-04   -1.495128E-05   -1.221110E-04
     4.920000E-02    6.420898E-05    1.272472E-01    2.542302E-01   -9.536506E-02   -1.516899E-01    2.641394E-04    2.641394E-04   -1.404562E-05   -1.415746E-04
     5.900000E-02    6.420898E-05    1.313100E-01    2.623230E-01   -9.321365E-02   -1.577972E-01    2.969565E-04    2.969565E-04   -1.232504E-05   -1.596475E-04
     6.880000E-02    6.420898E-05    1.344315E-01    2.685347E-01   -9.180399E-02   -1.626634E-01    3.282803E-04    3.282803E-04   -1.207175E-05   -1.768322E-04
     7.860000E-02    6.420898E-05    1.374813E-01    2.746045E-01   -8.996952E-02   -1.673192E-01    3.580595E-04    3.580595E-04   -1.147533E-05   -1.928728E-04
     8.840000E-02    6.420898E-05    1.405317E-01    2.806772E-01   -8.774516E-02   -1.718534E-01    3.860722E-04    3.860722E-04   -1.084223E-05   -2.077395E-04
     9.820000E-02    6.420898E-05    1.436551E-01    2.868980E-01   -8.516583E-02   -1.763549E-01    4.120967E-04    4.120967E-04   -1.047890E-05   -2.214024E-04
     1.080000E-01    6.420898E-05    1.467070E-01    2.929788E-01   -8.221281E-02   -1.809621E-01    4.350737E-04    4.350737E-04   -8.933599E-06   -2.346764E-04
     1.178000E-01    6.420898E-05    1.499678E-01    2.994775E-01   -7.907884E-02   -1.855877E-01    4.580631E-04    4.580631E-04   -8.806760E-06   -2.473086E-04
     1.276000E-01    6.420898E-05    1.526238E-01    3.047678E-01   -7.642721E-02   -1.893849E-01    4.798338E-04    4.798338E-04   -8.405308E-06   -2.590681E-04
     1.374000E-01    6.420898E-05    1.548284E-01    3.091565E-01   -7.410634E-02   -1.925526E-01    5.002955E-04    5.002955E-04   -7.917840E-06   -2.699352E-04
     1.472000E-01    6.420898E-05    1.567349E-01    3.129504E-01   -7.196459E-02   -1.952894E-01    5.193584E-04    5.193584E-04   -7.532950E-06   -2.798901E-04
     1.570000E-01    6.420898E-05    1.584967E-01    3.164565E-01   -6.985038E-02   -1.977941E-01    5.369323E-04    5.369323E-04   -7.439233E-06   -2.889132E-04
     1.668000E-01    6.420898E-05    1.603970E-01    3.202420E-01   -6.758424E-02   -2.000363E-01    5.519462E-04    5.519462E-04   -5.803742E-06   -2.979819E-04
     1.766000E-01    6.420898E-05    1.629248E-01    3.252820E-01   -6.439254E-02   -2.031189E-01    5.677268E-04    5.677268E-04   -5.960419E-06   -3.068075E-04
     1.864000E-01    6.420898E-05    1.652248E-01    3.298668E-01   -6.135024E-02   -2.059360E-01    5.827272E-04    5.827272E-04   -5.800497E-06   -3.150201E-04
     1.962000E-01    6.420898E-05    1.673025E-01    3.340082E-01   -5.845384E-02   -2.084827E-01    5.968502E-04    5.968502E-04   -5.464953E-06   -3.225823E-04
     2.060000E-01    6.420898E-05    1.691639E-01    3.377178E-01   -5.569986E-02   -2.107542E-01    6.099982E-04    6.099982E-04   -5.094763E-06   -3.294570E-04
     2.158000E-01    6.420898E-05    1.708146E-01    3.410072E-01   -5.308479E-02   -2.127458E-01    6.220737E-04    6.220737E-04   -4.830903E-06   -3.356066E-04
     2.256000E-01    6.420898E-05    1.722605E-01    3.438881E-01   -5.060515E-02   -2.144526E-01    6.329795E-04    6.329795E-04   -4.814350E-06   -3.409940E-04
     2.354000E-01    6.420898E-05    1.735741E-01    3.465066E-01   -4.839947E-02   -2.158412E-01    6.416578E-04    6.416578E-04   -3.198045E-06   -3.470842E-04
     2.452000E-01    6.420898E-05    1.747267E-01    3.488020E-01   -4.672623E-02   -2.170784E-01    6.512760E-04    6.512760E-04   -3.520243E-06   -3.519914E-04
     2.550000E-01    6.420898E-05    1.759544E-01    3.512480E-01   -4.464775E-02   -2.183031E-01    6.606883E-04    6.606883E-04   -3.590679E-06   -3.572911E-04
     2.648000E-01    6.420898E-05    1.772269E-01    3.537842E-01   -4.253655E-02   -2.195624E-01    6.695695E-04    6.695695E-04   -3.461014E-06   -3.621475E-04
     2.746000E-01    6.420898E-05    1.785029E-01    3.563280E-01   -4.041546E-02   -2.208242E-01    6.778545E-04    6.778545E-04   -3.228066E-06   -3.665349E-04
     2.844000E-01    6.420898E-05    1.797412E-01    3.587969E-01   -3.830732E-02   -2.220567E-01    6.854782E-04    6.854782E-04   -2.988652E-06   -3.704278E-04
     2.942000E-01    6.420898E-05    1.809003E-01    3.611083E-01   -3.623496E-02   -2.232276E-01    6.923753E-04    6.923753E-04   -2.839590E-06   -3.738004E-04
     3.040000E-01    6.420898E-05    1.819391E-01    3.631796E-01   -3.422124E-02   -2.243051E-01    6.984808E-04    6.984808E-04   -2.877699E-06   -3.766273E-04
     3.138000E-01    6.420898E-05    1.828160E-01    3.649283E-01   -3.228897E-02   -2.252572E-01    7.037294E-04    7.037294E-04   -3.199796E-06   -3.788827E-04
     3.236000E-01    6.420898E-05    1.832548E-01    3.658019E-01   -3.020158E-02   -2.259330E-01    7.077113E-04    7.077113E-04   -1.636019E-06   -3.823917E-04
     3.334000E-01    6.420898E-05    1.838146E-01    3.669162E-01   -2.840627E-02   -2.264678E-01    7.130755E-04    7.130755E-04   -1.928882E-06   -3.855772E-04
     3.432000E-01    6.420898E-05    1.843946E-01    3.680710E-01   -2.660454E-02   -2.270024E-01    7.181464E-04    7.181464E-04   -1.975500E-06   -3.884638E-04
     3.530000E-01    6.420898E-05    1.849807E-01    3.692386E-01   -2.479781E-02   -2.275307E-01    7.228596E-04    7.228596E-04   -1.862669E-06   -3.910212E-04
     3.628000E-01    6.420898E-05    1.855593E-01    3.703914E-01   -2.298747E-02   -2.280465E-01    7.271504E-04    7.271504E-04   -1.677186E-06   -3.932193E-04
     3.726000E-01    6.420898E-05    1.861163E-01    3.715017E-01   -2.117493E-02   -2.285437E-01    7.309544E-04    7.309544E-04   -1.505846E-06   -3.950279E-04
     3.824000E-01    6.420898E-05    1.866380E-01    3.725418E-01   -1.936158E-02   -2.290160E-01    7.342070E-04    7.342070E-04   -1.435445E-06   -3.964167E-04
     3.922000E-01    6.420898E-05    1.871105E-01    3.734842E-01   -1.754882E-02   -2.294574E-01    7.368438E-04    7.368438E-04   -1.552778E-06   -3.973556E-04
     4.020000E-01    6.420898E-05    1.875199E-01    3.743011E-01   -1.573806E-02   -2.298616E-01    7.388001E-04    7.388001E-04   -1.944643E-06   -3.978143E-04
     4.118000E-01    6.420898E-05    1.878854E-01    3.750310E-01   -1.375726E-02   -2.302649E-01    7.397447E-04    7.397447E-04   -6.030162E-07   -3.998337E-04
     4.216000E-01    6.420898E-05    1.880546E-01    3.753668E-01   -1.223429E-02   -2.305190E-01    7.424551E-04    7.424551E-04   -6.255546E-07   -4.015046E-04
     4.314000E-01    6.420898E-05    1.882660E-01    3.757873E-01   -1.078448E-02   -2.307634E-01    7.446886E-04    7.446886E-04   -5.931149E-07   -4.028521E-04
     4.412000E-01    6.420898E-05    1.884975E-01    3.762485E-01   -9.374040E-03   -2.309893E-01    7.464833E-04    7.464833E-04   -5.186909E-07   -4.039085E-04
     4.510000E-01    6.420898E-05    1.887272E-01    3.767064E-01   -7.969191E-03   -2.311878E-01    7.478777E-04    7.478777E-04   -4.152765E-07   -4.047067E-04
     4.608000E-01    6.420898E-05    1.889330E-01    3.771170E-01   -6.536141E-03   -2.313502E-01    7.489098E-04    7.489098E-04   -2.958655E-07   -4.052790E-04
     4.706000E-01    6.420898E-05    1.890930E-01    3.774363E-01   -5.041105E-03   -2.314675E-01    7.496180E-04    7.496180E-04   -1.734517E-07   -4.056582E-04
     4.804000E-01    6.420898E-05    1.891851E-01    3.776202E-01   -3.450295E-03   -2.315309E-01    7.500406E-04    7.500406E-04   -6.102887E-08   -4.058768E-04
     4.902000E-01    6.420898E-05    1.891875E-01    3.776249E-01   -1.729923E-03   -2.315315E-01    7.502156E-04    7.502156E-04    2.840903E-08   -4.059674E-04
     5.000000E-01    6.420898E-05    1.890782E-01    3.774062E-01    1.537956E-04   -2.314605E-01    7.501815E-04    7.501815E-04    8.186821E-08   -4.059625E-04
     5.098000E-01    6.420898E-05    1.891875E-01    3.776249E-01    1.729923E-03   -2.315315E-01    7.502156E-04    7.502156E-04   -2.840899E-08   -4.059674E-04
     5.196000E-01    6.420898E-05    1.891851E-01    3.776202E-01    3.450295E-03   -2.315309E-01    7.500405E-04    7.500405E-04    6.102897E-08   -4.058768E-04
     5.294000E-01    6.420898E-05    1.890930E-01    3.774363E-01    5.041105E-03   -2.314675E-01    7.496180E-04    7.496180E-04    1.734518E-07   -4.056582E-04
     5.392000E-01    6.420898E-05    1.889330E-01    3.771170E-01    6.536141E-03   -2.313502E-01    7.489098E-04    7.489098E-04    2.958658E-07   -4.052790E-04
     5.490000E-01    6.420898E-05    1.887272E-01    3.767064E-01    7.969191E-03   -2.311878E-01    7.478777E-04    7.478777E-04    4.152770E-07   -4.047067E-04
     5.588000E-01    6.420898E-05    1.884975E-01    3.762485E-01    9.374040E-03   -2.309893E-01    7.464833E-04    7.464833E-04    5.186915E-07   -4.039085E-04
     5.686000E-01    6.420898E-05    1.882660E-01    3.757873E-01    1.078448E-02   -2.307634E-01    7.446886E-04    7.446886E-04    5.931157E-07   -4.028521E-04
     5.784000E-01    6.420898E-05    1.880546E-01    3.753668E-01    1.223429E-02   -2.305190E-01    7.424551E-04    7.424551E-04    6.255555E-07   -4.015046E-04
     5.882000E-01    6.420898E-05    1.878854E-01    3.750310E-01    1.375726E-02   -2.302649E-01    7.397447E-04    7.397447E-04    6.030171E-07   -3.998337E-04
     5.980000E-01    6.420898E-05    1.875199E-01    3.743011E-01    1.573806E-02   -2.298616E-01    7.388001E-04    7.388001E-04    1.944642E-06   -3.978143E-04
     6.078000E-01    6.420898E-05    1.871105E-01    3.734842E-01    1.754882E-02   -2.294574E-01    7.368438E-04    7.368438E-04    1.552777E-06   -3.973556E-04
     6.176000E-01    6.420898E-05    1.866380E-01    3.725418E-01    1.936158E-02   -2.290160E-01    7.342070E-04    7.342070E-04    1.435444E-06   -3.964167E-04
     6.274000E-01    6.420898E-05    1.861163E-01    3.715017E-01    2.117493E-02   -2.285437E-01    7.309544E-04    7.309544E-04    1.505845E-06   -3.950279E-04
     6.372000E-01    6.420898E-05    1.855593E-01    3.703914E-01    2.298747E-02   -2.280465E-01    7.271504E-04    7.271504E-04    1.677186E-06   -3.932193E-04
     6.470000E-01    6.420898E-05    1.849807E-01    3.692386E-01    2.479781E-02   -2.275307E-01    7.228596E-04    7.228596E-04    1.862670E-06   -3.910212E-04
     6.568000E-01    6.420898E-05    1.843946E-01    3.680710E-01    2.660454E-02   -2.270024E-01    7.181464E-04    7.181464E-04    1.975501E-06   -3.884638E-04
     6.666000E-01    6.420898E-05    1.838146E-01    3.669162E-01    2.840627E-02   -2.264678E-01    7.130755E-04    7.130755E-04    1.928883E-06   -3.855772E-04
     6.764000E-01    6.420898E-05    1.832548E-01    3.658019E-01    3.020158E-02   -2.259330E-01    7.077113E-04    7.077113E-04    1.636019E-06   -3.823917E-04
     6.862000E-01    6.420898E-05    1.828160E-01    3.649283E-01    3.228897E-02   -2.252572E-01    7.037294E-04    7.037294E-04    3.199795E-06   -3.788827E-04
     6.960000E-01    6.420898E-05    1.819391E-01    3.631796E-01    3.422124E-02   -2.243051E-01    6.984808E-04    6.984808E-04    2.877698E-06   -3.766273E-04