mesh: [    12,    12,    12 ]
nqpoint: 1728   
reciprocal_lattice:
- [  -0.12198912,  -0.12198912,   0.12198912 ] # a*
- [   0.12198912,   0.12198912,   0.12198912 ] # b*
- [  -0.12198912,   0.12198912,  -0.12198912 ] # c*
natom:   2      
lattice:
- [    -4.098726319999999,     0.000000000000000,     4.098726319999999 ] # a
- [     0.000000000000000,     4.098726319999999,     4.098726319999999 ] # b
- [    -4.098726319999999,     4.098726319999999,     0.000000000000000 ] # c
points:
- symbol: Si # 1
  coordinates: [  0.000000000000000,  0.000000000000000,  0.000000000000000 ]
  mass: 28.085500
- symbol: C  # 2
  coordinates: [  0.250000000000000,  0.250000000000000,  0.250000000000000 ]
  mass: 12.010700

phonon:
- q-position: [    0.0000000,    0.0000000,    0.0000000 ]
  distance_from_gamma:  0.000000000
  weight: 1    
  band:
  - # 1
    frequency:     0.1578830338
    group_velocity: [    -0.0000000,     0.0000000,     0.0000000 ]
  - # 2
    frequency:     0.1578830338
    group_velocity: [     0.0000000,     0.0000000,     0.0000000 ]
  - # 3
    frequency:     0.1578830338
    group_velocity: [    -0.0000000,    -0.0000000,     0.0000000 ]
  - # 4
    frequency:    23.4622180093
    group_velocity: [    -0.0000000,    -0.0000000,     0.0000000 ]
  - # 5
    frequency:    23.4622180093
    group_velocity: [    -0.0000000,    -0.0000000,     0.0000000 ]
  - # 6
    frequency:    23.4622180093
    group_velocity: [     0.0000000,     0.0000000,     0.0000000 ]

- q-position: [    0.0833333,    0.0000000,    0.0000000 ]
  distance_from_gamma:  0.017607612
  weight: 1    
  band:
  - # 1
    frequency:     2.2011978590
    group_velocity: [   -73.3840971,   -73.3840971,    73.3840971 ]
  - # 2
    frequency:     2.3839059170
    group_velocity: [   -74.9836665,   -74.9836665,    74.9836665 ]
  - # 3
    frequency:     4.0658786868
    group_velocity: [  -141.2001028,  -141.2001028,   141.2001028 ]
  - # 4
    frequency:    23.4192332344
    group_velocity: [     3.3491567,     3.3491567,    -3.3491567 ]
  - # 5
    frequency:    23.4401013984
    group_velocity: [     2.7737894,     2.7737894,    -2.7737894 ]
  - # 6
    frequency:    25.5430453186
    group_velocity: [  -107.4158193,  -107.4158193,   107.4158193 ]

- q-position: [    0.1666667,    0.0000000,    0.0000000 ]
  distance_from_gamma:  0.035215224
  weight: 1    
  band:
  - # 1
    frequency:     4.3526450718
    group_velocity: [   -61.3035781,   -61.3035781,    61.3035781 ]
  - # 2
    frequency:     4.3526450718
    group_velocity: [   -57.8770958,   -57.8770958,    57.8770958 ]
  - # 3
    frequency:     8.4002851784
    group_velocity: [  -137.0374076,  -137.0374076,   137.0374076 ]
  - # 4
    frequency:    23.2403666703
    group_velocity: [     8.9739364,     8.9739364,    -8.9739364 ]
  - # 5
    frequency:    23.2403666703
    group_velocity: [     8.5461264,     8.5461264,    -8.5461264 ]
  - # 6
    frequency:    28.1360768874
    group_velocity: [   -43.5053802,   -43.5053802,    43.5053802 ]

- q-position: [    0.2500000,    0.0000000,    0.0000000 ]
  distance_from_gamma:  0.052822837
  weight: 1    
  band:
  - # 1
    frequency:     5.8377407066
    group_velocity: [   -43.3353735,   -43.3353735,    43.3353735 ]
  - # 2
    frequency:     5.9742919612
    group_velocity: [   -41.7093724,   -41.7093724,    41.7093724 ]
  - # 3
    frequency:    12.2081696049
    group_velocity: [  -111.1180795,  -111.1180795,   111.1180795 ]
  - # 4
    frequency:    22.9707542918
    group_velocity: [     6.2257035,     6.2257035,    -6.2257035 ]
  - # 5
    frequency:    23.0055640736
    group_velocity: [     6.3734158,     6.3734158,    -6.3734158 ]
  - # 6
    frequency:    27.9933465618
    group_velocity: [    43.3380903,    43.3380903,   -43.3380903 ]

- q-position: [    0.3333333,    0.0000000,    0.0000000 ]
  distance_from_gamma:  0.070430449
  weight: 1    
  band:
  - # 1
    frequency:     6.9687834993
    group_velocity: [   -26.8588227,   -26.8588227,    26.8588227 ]
  - # 2
    frequency:     6.9687834993
    group_velocity: [   -28.2352441,   -28.2352441,    28.2352441 ]
  - # 3
    frequency:    15.1708665076
    group_velocity: [   -84.2899236,   -84.2899236,    84.2899236 ]
  - # 4
    frequency:    22.8684701729
    group_velocity: [     2.3755233,     2.3755233,    -2.3755233 ]
  - # 5
    frequency:    22.8684701730
    group_velocity: [     2.8102679,     2.8102679,    -2.8102679 ]
  - # 6
    frequency:    26.3618406996
    group_velocity: [    51.0450191,    51.0450191,   -51.0450191 ]

- q-position: [    0.4166667,    0.0000000,    0.0000000 ]
  distance_from_gamma:  0.088038061
  weight: 1    
  band:
  - # 1
    frequency:     7.5799309347
    group_velocity: [   -14.6151374,   -14.6151374,    14.6151374 ]
  - # 2
    frequency:     7.6210248161
    group_velocity: [   -13.2233601,   -13.2233601,    13.2233601 ]
  - # 3
    frequency:    17.3697787166
    group_velocity: [   -57.3494835,   -57.3494835,    57.3494835 ]
  - # 4
    frequency:    22.7632243934
    group_velocity: [     3.6447795,     3.6447795,    -3.6447795 ]
  - # 5
    frequency:    22.7767978595
    group_velocity: [     4.0927165,     4.0927165,    -4.0927165 ]
  - # 6
    frequency:    25.2194947183
    group_velocity: [    24.0678442,    24.0678442,   -24.0678442 ]

- q-position: [    0.5000000,    0.0000000,    0.0000000 ]
  distance_from_gamma:  0.105645673
  weight: 1    
  band:
  - # 1
    frequency:     7.8138099779
    group_velocity: [    -0.0000003,    -0.0000003,     0.0000003 ]
  - # 2
    frequency:     7.8138099779
    group_velocity: [     0.0000003,     0.0000003,    -0.0000003 ]
  - # 3
    frequency:    18.3285000252
    group_velocity: [     0.0000000,     0.0000000,    -0.0000000 ]
  - # 4
    frequency:    22.6936144846
    group_velocity: [    -0.0000001,    -0.0000001,     0.0000001 ]
  - # 5
    frequency:    22.6936144846
    group_velocity: [     0.0000001,     0.0000001,    -0.0000001 ]
  - # 6
    frequency:    24.8478846482
    group_velocity: [    -0.0000000,    -0.0000000,     0.0000000 ]

- q-position: [   -0.4166667,    0.0000000,    0.0000000 ]
  distance_from_gamma:  0.088038061
  weight: 1    
  band:
  - # 1
    frequency:     7.5799309347
    group_velocity: [    14.6151374,    14.6151374,   -14.6151374 ]
  - # 2
    frequency:     7.6210248161
    group_velocity: [    13.2233601,    13.2233601,   -13.2233601 ]
  - # 3
    frequency:    17.3697787166
    group_velocity: [    57.3494835,    57.3494835,   -57.3494835 ]
  - # 4
    frequency:    22.7632243934
    group_velocity: [    -3.6447795,    -3.6447795,     3.6447795 ]
  - # 5
    frequency:    22.7767978595
    group_velocity: [    -4.0927165,    -4.0927165,     4.0927165 ]
  - # 6
    frequency:    25.2194947183
    group_velocity: [   -24.0678442,   -24.0678442,    24.0678442 ]

- q-position: [   -0.3333333,    0.0000000,    0.0000000 ]
  distance_from_gamma:  0.070430449
  weight: 1    
  band:
  - # 1
    frequency:     6.9687834993
    group_velocity: [    28.2352441,    28.2352441,   -28.2352441 ]
  - # 2
    frequency:     6.9687834993
    group_velocity: [    26.8588227,    26.8588227,   -26.8588227 ]
  - # 3
    frequency:    15.1708665076
    group_velocity: [    84.2899236,    84.2899236,   -84.2899236 ]
  - # 4
    frequency:    22.8684701729
    group_velocity: [    -2.8102679,    -2.8102679,     2.8102679 ]
  - # 5
    frequency:    22.8684701730
    group_velocity: [    -2.3755233,    -2.3755233,     2.3755233 ]
  - # 6
    frequency:    26.3618406996
    group_velocity: [   -51.0450191,   -51.0450191,    51.0450191 ]

- q-position: [   -0.2500000,    0.0000000,    0.0000000 ]
  distance_from_gamma:  0.052822837
  weight: 1    
  band:
  - # 1
    frequency:     5.8377407066
    group_velocity: [    43.3353735,    43.3353735,   -43.3353735 ]
  - # 2
    frequency:     5.9742919612
    group_velocity: [    41.7093724,    41.7093724,   -41.7093724 ]
  - # 3
    frequency:    12.2081696049
    group_velocity: [   111.1180795,   111.1180795,  -111.1180795 ]
  - # 4
    frequency:    22.9707542918
    group_velocity: [    -6.2257035,    -6.2257035,     6.2257035 ]
  - # 5
    frequency:    23.0055640736
    group_velocity: [    -6.3734158,    -6.3734158,     6.3734158 ]
  - # 6
    frequency:    27.9933465618
    group_velocity: [   -43.3380903,   -43.3380903,    43.3380903 ]

- q-position: [   -0.1666667,    0.0000000,    0.0000000 ]
  distance_from_gamma:  0.035215224
  weight: 1    
  band:
  - # 1
    frequency:     4.3526450718
    group_velocity: [    57.8770958,    57.8770958,   -57.8770958 ]
  - # 2
    frequency:     4.3526450718
    group_velocity: [    61.3035781,    61.3035781,   -61.3035781 ]
  - # 3
    frequency:     8.4002851784
    group_velocity: [   137.0374076,   137.0374076,  -137.0374076 ]
  - # 4
    frequency:    23.2403666703
    group_velocity: [    -8.5461264,    -8.5461264,     8.5461264 ]
  - # 5
    frequency:    23.2403666703
    group_velocity: [    -8.9739364,    -8.9739364,     8.9739364 ]
  - # 6
    frequency:    28.1360768874
    group_velocity: [    43.5053802,    43.5053802,   -43.5053802 ]

- q-position: [   -0.0833333,    0.0000000,    0.0000000 ]
  distance_from_gamma:  0.017607612
  weight: 1    
  band:
  - # 1
    frequency:     2.2011978590
    group_velocity: [    73.3840971,    73.3840971,   -73.3840971 ]
  - # 2
    frequency:     2.3839059170
    group_velocity: [    74.9836665,    74.9836665,   -74.9836665 ]
  - # 3
    frequency:     4.0658786868
    group_velocity: [   141.2001028,   141.2001028,  -141.2001028 ]
  - # 4
    frequency:    23.4192332344
    group_velocity: [    -3.3491567,    -3.3491567,     3.3491567 ]
  - # 5
    frequency:    23.4401013984
    group_velocity: [    -2.7737894,    -2.7737894,     2.7737894 ]
  - # 6
    frequency:    25.5430453186
    group_velocity: [   107.4158193,   107.4158193,  -107.4158193 ]

- q-position: [    0.0000000,    0.0833333,    0.0000000 ]
  distance_from_gamma:  0.017607612
  weight: 1    
  band:
  - # 1
    frequency:     1.7199479332
    group_velocity: [    79.5396024,    79.5396024,    79.5396024 ]
  - # 2
    frequency:     2.1915993465
    group_velocity: [    75.2787682,    75.2787682,    75.2787682 ]
  - # 3
    frequency:     4.2590892563
    group_velocity: [   138.9056772,   138.9056772,   138.9056772 ]
  - # 4
    frequency:    23.4379149028
    group_velocity: [    -2.8184967,    -2.8184967,    -2.8184967 ]
  - # 5
    frequency:    23.4803195184
    group_velocity: [    -1.7158609,    -1.7158609,    -1.7158609 ]
  - # 6
    frequency:    25.5116291596
    group_velocity: [   106.9165769,   106.9165769,   106.9165769 ]

- q-position: [    0.0833333,    0.0833333,    0.0000000 ]
  distance_from_gamma:  0.020331519
  weight: 1    
  band:
  - # 1
    frequency:     2.8992650632
    group_velocity: [     0.0000000,     0.0000000,   164.6765541 ]
  - # 2
    frequency:     3.4004300754
    group_velocity: [     0.0000000,     0.0000000,   147.2559317 ]
  - # 3
    frequency:     4.2946975717
    group_velocity: [     0.0000000,     0.0000000,   204.5631003 ]
  - # 4
    frequency:    23.5006085538
    group_velocity: [     0.0000000,     0.0000000,    -1.8873390 ]
  - # 5
    frequency:    23.5686402300
    group_velocity: [     0.0000000,     0.0000000,    -0.8463411 ]
  - # 6
    frequency:    25.7480491633
    group_velocity: [     0.0000000,     0.0000000,   169.3784830 ]

- q-position: [    0.1666667,    0.0833333,    0.0000000 ]
  distance_from_gamma:  0.033716010
  weight: 1    
  band:
  - # 1
    frequency:     4.5192713829
    group_velocity: [    -6.4010430,    -6.4010430,   146.5004932 ]
  - # 2
    frequency:     4.8775383598
    group_velocity: [   -13.8595281,   -13.8595281,   125.0406926 ]
  - # 3
    frequency:     7.5308497398
    group_velocity: [   -94.1209207,   -94.1209207,   164.2766412 ]
  - # 4
    frequency:    23.3470798858
    group_velocity: [     7.8801482,     7.8801482,   -13.4908430 ]
  - # 5
    frequency:    23.4307996886
    group_velocity: [     5.9556830,     5.9556830,    -5.7563274 ]
  - # 6
    frequency:    27.7087387363
    group_velocity: [   -35.9376535,   -35.9376535,    74.2907924 ]

- q-position: [    0.2500000,    0.0833333,    0.0000000 ]
  distance_from_gamma:  0.049801848
  weight: 1    
  band:
  - # 1
    frequency:     6.1476384899
    group_velocity: [   -11.4158450,   -11.4158450,   121.9382014 ]
  - # 2
    frequency:     6.2626190737
    group_velocity: [   -11.2041870,   -11.2041870,   101.1637938 ]
  - # 3
    frequency:    11.0217780149
    group_velocity: [  -105.6398117,  -105.6398117,   114.4009793 ]
  - # 4
    frequency:    23.0511825585
    group_velocity: [     5.8667963,     5.8667963,   -10.0714793 ]
  - # 5
    frequency:    23.1967902161
    group_velocity: [    12.4621571,    12.4621571,    -1.6093156 ]
  - # 6
    frequency:    28.0479709226
    group_velocity: [    14.4446380,    14.4446380,   -45.7352659 ]

- q-position: [    0.3333333,    0.0833333,    0.0000000 ]
  distance_from_gamma:  0.066661344
  weight: 1    
  band:
  - # 1
    frequency:     7.2625809516
    group_velocity: [    -4.2643173,    -4.2643173,    76.8979342 ]
  - # 2
    frequency:     7.4657658056
    group_velocity: [     4.8224847,     4.8224847,   110.1604775 ]
  - # 3
    frequency:    14.0451837377
    group_velocity: [   -97.3049580,   -97.3049580,    72.2274387 ]
  - # 4
    frequency:    22.9351270638
    group_velocity: [     2.6583175,     2.6583175,     0.3735891 ]
  - # 5
    frequency:    22.9737746990
    group_velocity: [     8.2319621,     8.2319621,     1.5981988 ]
  - # 6
    frequency:    26.7530348868
    group_velocity: [    41.9379510,    41.9379510,   -61.3338686 ]

- q-position: [    0.4166667,    0.0833333,    0.0000000 ]
  distance_from_gamma:  0.083829002
  weight: 1    
  band:
  - # 1
    frequency:     7.9254153392
    group_velocity: [     4.9646034,     4.9646034,    54.3010943 ]
  - # 2
    frequency:     8.2665225241
    group_velocity: [    20.2284207,    20.2284207,    98.7389481 ]
  - # 3
    frequency:    16.4243424495
    group_velocity: [   -79.3703362,   -79.3703362,    39.1096254 ]
  - # 4
    frequency:    22.8463464084
    group_velocity: [     5.3525265,     5.3525265,    -4.9899175 ]
  - # 5
    frequency:    22.8772546226
    group_velocity: [     5.7498421,     5.7498421,     5.4792681 ]
  - # 6
    frequency:    25.5552045359
    group_velocity: [    30.2609673,    30.2609673,   -23.3663893 ]

- q-position: [    0.5000000,    0.0833333,    0.0000000 ]
  distance_from_gamma:  0.101148031
  weight: 1    
  band:
  - # 1
    frequency:     8.1610315936
    group_velocity: [    15.5552697,    15.5552697,    34.0391840 ]
  - # 2
    frequency:     8.6685010803
    group_velocity: [    33.2028483,    33.2028483,    87.1371174 ]
  - # 3
    frequency:    17.8567660756
    group_velocity: [   -38.6280566,   -38.6280566,    -9.8276782 ]
  - # 4
    frequency:    22.6680897369
    group_velocity: [     2.4682607,     2.4682607,    -9.1165429 ]
  - # 5
    frequency:    22.8308618881
    group_velocity: [     5.3274927,     5.3274927,    10.0301993 ]
  - # 6
    frequency:    25.0304357004
    group_velocity: [    12.9623681,    12.9623681,     5.4962488 ]

- q-position: [   -0.4166667,    0.0833333,    0.0000000 ]
  distance_from_gamma:  0.095363279
  weight: 1    
  band:
  - # 1
    frequency:     8.0118677584
    group_velocity: [    25.3026810,    25.3026810,    18.6255401 ]
  - # 2
    frequency:     8.6752905549
    group_velocity: [    48.3844054,    48.3844054,    77.2170156 ]
  - # 3
    frequency:    17.5595249274
    group_velocity: [    26.7071659,    26.7071659,   -69.2614540 ]
  - # 4
    frequency:    22.6295785781
    group_velocity: [    -5.3978333,    -5.3978333,    -5.0877004 ]
  - # 5
    frequency:    22.9136707551
    group_velocity: [     0.4776084,     0.4776084,    15.3641902 ]
  - # 6
    frequency:    25.1507764968
    group_velocity: [    -8.0874262,    -8.0874262,    27.8433208 ]

- q-position: [   -0.3333333,    0.0833333,    0.0000000 ]
  distance_from_gamma:  0.078084682
  weight: 1    
  band:
  - # 1
    frequency:     7.4846560011
    group_velocity: [    38.7988784,    38.7988784,     3.6308625 ]
  - # 2
    frequency:     8.2868457541
    group_velocity: [    63.1898689,    63.1898689,    70.7042914 ]
  - # 3
    frequency:    15.6869034689
    group_velocity: [    62.5547344,    62.5547344,  -102.6503496 ]
  - # 4
    frequency:    22.7273896289
    group_velocity: [    -7.4402393,    -7.4402393,    -3.4232265 ]
  - # 5
    frequency:    23.0154631362
    group_velocity: [     3.6891528,     3.6891528,    11.2982045 ]
  - # 6
    frequency:    25.9076965074
    group_velocity: [   -33.2837378,   -33.2837378,    37.7490859 ]

- q-position: [   -0.2500000,    0.0833333,    0.0000000 ]
  distance_from_gamma:  0.060994558
  weight: 1    
  band:
  - # 1
    frequency:     6.4674818637
    group_velocity: [    56.1418181,    56.1418181,   -14.5332519 ]
  - # 2
    frequency:     7.5488757926
    group_velocity: [    78.0788441,    78.0788441,    64.6394784 ]
  - # 3
    frequency:    13.1158077296
    group_velocity: [    83.1493509,    83.1493509,  -111.8543737 ]
  - # 4
    frequency:    22.8659183804
    group_velocity: [    -8.7109912,    -8.7109912,    -0.2010877 ]
  - # 5
    frequency:    23.0864555083
    group_velocity: [    -1.0767413,    -1.0767413,    15.3348229 ]
  - # 6
    frequency:    27.1830668270
    group_velocity: [   -55.7131230,   -55.7131230,    20.7631330 ]

- q-position: [   -0.1666667,    0.0833333,    0.0000000 ]
  distance_from_gamma:  0.044311519
  weight: 1    
  band:
  - # 1
    frequency:     4.9444645950
    group_velocity: [    70.3868371,    70.3868371,   -28.0355487 ]
  - # 2
    frequency:     6.3325395750
    group_velocity: [    99.3576903,    99.3576903,    45.8813031 ]
  - # 3
    frequency:     9.9862724410
    group_velocity: [   122.6670644,   122.6670644,   -90.8796235 ]
  - # 4
    frequency:    23.0808521357
    group_velocity: [   -10.2915616,   -10.2915616,     2.2871409 ]
  - # 5
    frequency:    23.4147886124
    group_velocity: [    -6.5449944,    -6.5449944,    27.6711821 ]
  - # 6
    frequency:    28.0608682139
    group_velocity: [   -16.7518454,   -16.7518454,   -22.3984947 ]

- q-position: [   -0.0833333,    0.0833333,    0.0000000 ]
  distance_from_gamma:  0.028753110
  weight: 1    
  band:
  - # 1
    frequency:     3.1661588854
    group_velocity: [    80.8356179,    80.8356179,     0.0000000 ]
  - # 2
    frequency:     4.3626284525
    group_velocity: [   116.0213247,   116.0213247,     0.0000000 ]
  - # 3
    frequency:     6.5242041152
    group_velocity: [   161.5777670,   161.5777670,     0.0000000 ]
  - # 4
    frequency:    23.2856946210
    group_velocity: [    -8.0337350,    -8.0337350,     0.0000000 ]
  - # 5
    frequency:    23.6679196393
    group_velocity: [     1.4402152,     1.4402152,     0.0000000 ]
  - # 6
    frequency:    27.1742979999
    group_velocity: [    83.3554251,    83.3554251,     0.0000000 ]

- q-position: [    0.0000000,    0.1666667,    0.0000000 ]
  distance_from_gamma:  0.035215224
  weight: 1    
  band:
  - # 1
    frequency:     4.3526444567
    group_velocity: [    70.7126505,    70.7126505,    70.7126505 ]
  - # 2
    frequency:     4.3526444567
    group_velocity: [    73.8943471,    73.8943471,    73.8943471 ]
  - # 3
    frequency:     8.4002854905
    group_velocity: [   130.3328233,   130.3328233,   130.3328233 ]
  - # 4
    frequency:    23.2403667855
    group_velocity: [   -12.7824524,   -12.7824524,   -12.7824524 ]
  - # 5
    frequency:    23.2403667855
    group_velocity: [    -9.4996553,    -9.4996553,    -9.4996553 ]
  - # 6
    frequency:    28.1360767942
    group_velocity: [    45.5070943,    45.5070943,    45.5070943 ]

- q-position: [    0.0833333,    0.1666667,    0.0000000 ]
  distance_from_gamma:  0.033716010
  weight: 1    
  band:
  - # 1
    frequency:     4.3397799577
    group_velocity: [     2.1156145,     2.1156145,   150.9702393 ]
  - # 2
    frequency:     4.9002487690
    group_velocity: [    18.6984774,    18.6984774,   138.0222023 ]
  - # 3
    frequency:     7.5363435474
    group_velocity: [    94.5468499,    94.5468499,   160.5499757 ]
  - # 4
    frequency:    23.3418796536
    group_velocity: [    -8.8740954,    -8.8740954,   -16.4918486 ]
  - # 5
    frequency:    23.4526559822
    group_velocity: [    -4.8955861,    -4.8955861,    -5.2981712 ]
  - # 6
    frequency:    27.7178207505
    group_velocity: [    35.5802740,    35.5802740,    75.2401282 ]

- q-position: [    0.1666667,    0.1666667,    0.0000000 ]
  distance_from_gamma:  0.040663039
  weight: 1    
  band:
  - # 1
    frequency:     6.0894879616
    group_velocity: [     0.0000000,     0.0000000,   117.3232943 ]
  - # 2
    frequency:     6.0894880919
    group_velocity: [     0.0000000,     0.0000000,   139.1052436 ]
  - # 3
    frequency:     8.2517343569
    group_velocity: [     0.0000000,     0.0000000,   185.8102235 ]
  - # 4
    frequency:    23.2219869200
    group_velocity: [     0.0000000,     0.0000000,   -27.4497709 ]
  - # 5
    frequency:    23.2219869542
    group_velocity: [     0.0000000,     0.0000000,   -21.7379024 ]
  - # 6
    frequency:    28.1990769102
    group_velocity: [     0.0000000,     0.0000000,    47.5220692 ]

- q-position: [    0.2500000,    0.1666667,    0.0000000 ]
  distance_from_gamma:  0.052822837
  weight: 1    
  band:
  - # 1
    frequency:     7.2318181156
    group_velocity: [    -0.6617339,    -0.6617339,   105.3095633 ]
  - # 2
    frequency:     7.3968655944
    group_velocity: [    -5.2894124,    -5.2894124,   125.5661340 ]
  - # 3
    frequency:    10.6657507028
    group_velocity: [   -50.9437323,   -50.9437323,   148.2172614 ]
  - # 4
    frequency:    22.9888746058
    group_velocity: [     0.1467802,     0.1467802,   -14.7674453 ]
  - # 5
    frequency:    23.1161715693
    group_velocity: [    -7.9168061,    -7.9168061,   -17.5599116 ]
  - # 6
    frequency:    28.0482290510
    group_velocity: [    22.5623405,    22.5623405,   -33.7076770 ]

- q-position: [    0.3333333,    0.1666667,    0.0000000 ]
  distance_from_gamma:  0.067432021
  weight: 1    
  band:
  - # 1
    frequency:     8.1467674879
    group_velocity: [     5.3378340,     5.3378340,    85.8065621 ]
  - # 2
    frequency:     8.8389132241
    group_velocity: [    -3.8169662,    -3.8169662,   124.7850690 ]
  - # 3
    frequency:    13.1065170187
    group_velocity: [   -65.9019561,   -65.9019561,    96.6829103 ]
  - # 4
    frequency:    22.9388822871
    group_velocity: [    -1.4685840,    -1.4685840,    -2.4112614 ]
  - # 5
    frequency:    23.0680237125
    group_velocity: [     0.4945576,     0.4945576,    -7.6513951 ]
  - # 6
    frequency:    26.9232919478
    group_velocity: [    33.7118987,    33.7118987,   -52.6851953 ]

- q-position: [    0.4166667,    0.1666667,    0.0000000 ]
  distance_from_gamma:  0.083210329
  weight: 1    
  band:
  - # 1
    frequency:     8.7534633503
    group_velocity: [    11.8608706,    11.8608706,    66.6657838 ]
  - # 2
    frequency:     9.9356952263
    group_velocity: [    19.5324206,    19.5324206,   121.4821735 ]
  - # 3
    frequency:    15.2603951916
    group_velocity: [   -69.4755397,   -69.4755397,    50.8347988 ]
  - # 4
    frequency:    22.8688688972
    group_velocity: [     3.8658485,     3.8658485,    -9.7618473 ]
  - # 5
    frequency:    22.9855571812
    group_velocity: [     1.9790029,     1.9790029,    -2.2437697 ]
  - # 6
    frequency:    25.8997038903
    group_velocity: [    25.9430341,    25.9430341,   -24.9715124 ]

- q-position: [    0.5000000,    0.1666667,    0.0000000 ]
  distance_from_gamma:  0.099603696
  weight: 1    
  band:
  - # 1
    frequency:     9.0011163560
    group_velocity: [    21.5571181,    21.5571181,    48.9762579 ]
  - # 2
    frequency:    10.5429084828
    group_velocity: [    38.7789161,    38.7789161,   116.4203569 ]
  - # 3
    frequency:    16.7999585950
    group_velocity: [   -51.6720586,   -51.6720586,    -0.2809819 ]
  - # 4
    frequency:    22.6207682248
    group_velocity: [     5.0457869,     5.0457869,   -14.8499627 ]
  - # 5
    frequency:    22.9422628355
    group_velocity: [    -0.2260126,    -0.2260126,    -3.5407911 ]
  - # 6
    frequency:    25.3669606270
    group_velocity: [    14.0538027,    14.0538027,     0.6624941 ]

- q-position: [   -0.4166667,    0.1666667,    0.0000000 ]
  distance_from_gamma:  0.105155436
  weight: 1    
  band:
  - # 1
    frequency:     8.8911605278
    group_velocity: [    30.8414366,    30.8414366,    35.0722800 ]
  - # 2
    frequency:    10.7456244810
    group_velocity: [    53.9316200,    53.9316200,   108.9041677 ]
  - # 3
    frequency:    17.1255802510
    group_velocity: [    -3.9409937,    -3.9409937,   -56.6034335 ]
  - # 4
    frequency:    22.4749441725
    group_velocity: [    -2.5841002,    -2.5841002,    -7.5205301 ]
  - # 5
    frequency:    22.9649929326
    group_velocity: [    -5.2640830,    -5.2640830,     0.9507911 ]
  - # 6
    frequency:    25.3527760767
    group_velocity: [    -0.9163235,    -0.9163235,    21.2070220 ]

- q-position: [   -0.3333333,    0.1666667,    0.0000000 ]
  distance_from_gamma:  0.088623038
  weight: 1    
  band:
  - # 1
    frequency:     8.4548171195
    group_velocity: [    40.9041536,    40.9041536,    21.0712644 ]
  - # 2
    frequency:    10.5602268134
    group_velocity: [    67.7520758,    67.7520758,    98.0449499 ]
  - # 3
    frequency:    15.8190031819
    group_velocity: [    50.9923833,    50.9923833,   -94.0648396 ]
  - # 4
    frequency:    22.5255563306
    group_velocity: [    -6.9630459,    -6.9630459,    -4.7797584 ]
  - # 5
    frequency:    23.1213876543
    group_velocity: [    -3.4748633,    -3.4748633,     4.3393507 ]
  - # 6
    frequency:    25.7778064989
    group_velocity: [   -15.4007871,   -15.4007871,    27.1540174 ]

- q-position: [   -0.2500000,    0.1666667,    0.0000000 ]
  distance_from_gamma:  0.072598045
  weight: 1    
  band:
  - # 1
    frequency:     7.6184699960
    group_velocity: [    55.9362735,    55.9362735,     6.9117572 ]
  - # 2
    frequency:     9.9675813923
    group_velocity: [    79.1113355,    79.1113355,    74.8874121 ]
  - # 3
    frequency:    13.5272053603
    group_velocity: [    70.8371844,    70.8371844,   -90.8151295 ]
  - # 4
    frequency:    22.6436644746
    group_velocity: [    -9.6451198,    -9.6451198,    -3.9673321 ]
  - # 5
    frequency:    23.1643881824
    group_velocity: [    -0.1496165,    -0.1496165,     4.1814517 ]
  - # 6
    frequency:    26.4748518717
    group_velocity: [   -31.1101905,   -31.1101905,    14.0699758 ]

- q-position: [   -0.1666667,    0.1666667,    0.0000000 ]
  distance_from_gamma:  0.057506221
  weight: 1    
  band:
  - # 1
    frequency:     6.3509206562
    group_velocity: [    71.6350710,    71.6350710,     0.0000000 ]
  - # 2
    frequency:     8.6661359198
    group_velocity: [    89.9779995,    89.9779995,     0.0000000 ]
  - # 3
    frequency:    11.4713584389
    group_velocity: [    82.0134073,    82.0134073,     0.0000000 ]
  - # 4
    frequency:    22.8487153059
    group_velocity: [   -12.3410519,   -12.3410519,     0.0000000 ]
  - # 5
    frequency:    23.3324588438
    group_velocity: [   -11.2834814,   -11.2834814,     0.0000000 ]
  - # 6
    frequency:    27.2926373604
    group_velocity: [   -41.8653396,   -41.8653396,     0.0000000 ]

- q-position: [   -0.0833333,    0.1666667,    0.0000000 ]
  distance_from_gamma:  0.044311519
  weight: 1    
  band:
  - # 1
    frequency:     4.9936053478
    group_velocity: [    73.7959752,    73.7959752,    34.1587024 ]
  - # 2
    frequency:     6.4567386442
    group_velocity: [    99.8503499,    99.8503499,   -35.1510291 ]
  - # 3
    frequency:     9.9164606591
    group_velocity: [   119.2500653,   119.2500653,    85.6595242 ]
  - # 4
    frequency:    23.0712243843
    group_velocity: [   -11.2553831,   -11.2553831,    -3.7289236 ]
  - # 5
    frequency:    23.3858189727
    group_velocity: [    -6.2773632,    -6.2773632,   -30.4810204 ]
  - # 6
    frequency:    28.0806895740
    group_velocity: [   -15.9518150,   -15.9518150,    24.5450718 ]

- q-position: [    0.0000000,    0.2500000,    0.0000000 ]
  distance_from_gamma:  0.052822837
  weight: 1    
  band:
  - # 1
    frequency:     5.9630002099
    group_velocity: [    41.9565803,    41.9565803,    41.9565803 ]
  - # 2
    frequency:     6.1974616714
    group_velocity: [    38.3881133,    38.3881133,    38.3881133 ]
  - # 3
    frequency:    12.1065441771
    group_velocity: [   111.6765156,   111.6765156,   111.6765156 ]
  - # 4
    frequency:    22.9115513661
    group_velocity: [    -5.7496760,    -5.7496760,    -5.7496760 ]
  - # 5
    frequency:    22.9726211036
    group_velocity: [    -6.2601139,    -6.2601139,    -6.2601139 ]
  - # 6
    frequency:    28.0380981514
    group_velocity: [   -43.1079779,   -43.1079779,   -43.1079779 ]

- q-position: [    0.0833333,    0.2500000,    0.0000000 ]
  distance_from_gamma:  0.049801848
  weight: 1    
  band:
  - # 1
    frequency:     6.1233111282
    group_velocity: [    21.6829696,    21.6829696,   122.0585742 ]
  - # 2
    frequency:     6.4193555732
    group_velocity: [    12.1602058,    12.1602058,    94.9336145 ]
  - # 3
    frequency:    10.9830967021
    group_velocity: [   103.1916710,   103.1916710,   116.6039109 ]
  - # 4
    frequency:    23.0082775837
    group_velocity: [    -6.0859902,    -6.0859902,    -9.5168131 ]
  - # 5
    frequency:    23.2038577079
    group_velocity: [   -14.6211368,   -14.6211368,    -0.8394130 ]
  - # 6
    frequency:    28.0624105452
    group_velocity: [   -13.8860576,   -13.8860576,   -46.5830108 ]

- q-position: [    0.1666667,    0.2500000,    0.0000000 ]